45
Properties=species:S:1:pos:R:3:force:R:3:mbi_charges:R:1:bec:R:9 energy=-202.7778778076172 dipole="_JSON [[0.9342932105064392, 0.3896370530128479, -0.6645343899726868]]" quadrupole="_JSON [[[-23.780536651611328, -2.0753955841064453, -1.3051551580429077], [-2.0753955841064453, -35.85139083862305, -0.6757714152336121], [-1.3051551580429077, -0.6757714152336121, -27.902767181396484]]]" pbc="F F F"
O       -2.02966976      -0.63859695       3.42645478      -0.61704832      -0.31854364      -0.07776701      -0.60537541      -1.08519601      -0.18387181       0.21290260      -0.30279724      -0.51812552      -0.08110511      -0.04900133      -0.15733272      -0.71476433
O       -0.82109284      -2.01025486      -1.41699779      -1.53458643       0.89854950       0.39532167      -0.80970651      -0.89661161       0.40298378       0.06933373       0.36797056      -1.27974220      -0.09417132      -0.14749721       0.29691186      -0.79030327
O       -0.45917666       3.96989155      -0.50372016       1.00106168       1.68515778      -0.02650266      -0.60424644      -0.74270812      -0.21252410       0.14999676      -0.25498669      -1.31726258       0.08063658       0.15837172      -0.12609673      -0.38326647
O        1.18380952       1.27009583       0.81614876       0.10828158      -1.53850436       0.59137750      -0.64413327      -0.65049220      -0.21282241      -0.24807353      -0.32310297      -0.73314892      -0.07741530      -0.07545015       0.05292971      -0.84506139
O        0.75718564      -3.36056328      -1.94092536       1.04103839      -1.58656216       0.93183857      -0.82773489      -0.88846360       0.24981282       0.50027827       0.12480162      -0.92802007      -0.10843434       0.59973998      -0.13266615      -1.30696526
C       -0.95791042      -0.14366013       3.65364289       1.17281330       0.95461726       0.40532392       0.79053915       1.53355400       0.10732883      -0.72844421       0.19399373       0.54441147       0.45232129      -0.34127594       0.46474869       1.31259905
C        0.00436366      -2.87677264      -1.05509567      -0.29856965       1.57430267      -2.03887820       0.96062797       0.97992155      -0.83072498      -0.46493463      -0.70419254       0.88894485       0.20576931      -0.25449216      -0.12805289       1.36246607
C       -0.95243651       2.87921619      -0.52301490       2.10045242      -0.13545765      -0.56597763       0.68737972       1.36144895       0.32473760      -0.42317118       0.06879685       1.42547719       0.03992077      -0.63510076       0.03708392       0.41644182
C        0.40932971       0.33959293       0.49670446       0.24192861       2.18795705       2.37662792       0.67682719       0.63012562       0.29475183       0.54075111       0.36602284       0.65422693      -0.17878489       0.38560182      -0.25848064       1.28554908
C        0.81923836      -0.26992184      -3.19935346      -0.38604182      -0.77454305       0.48346224      -0.09517147       0.07286530      -0.10878531      -0.02530583       0.18858433       0.06704644       0.04644746       0.01704861      -0.10257091      -0.09226138
C        1.57447362       0.68559963      -2.58601379       0.77504969      -0.51340657      -1.40493751       0.25004673       0.11533857       0.06610399       0.01217014      -0.25561828       0.29786355       0.19236943      -0.10130976       0.12061579       0.08709762
C        2.79913616      -1.13926530      -2.91222835      -1.38298333      -0.84845102      -0.66064191       0.22974789       0.23036627       0.30035067       0.06322609       0.39400444       0.31544581       0.01468370       0.16816906       0.11956425       0.14470231
N        1.54819942      -1.45402575      -3.37602568       3.51319218       3.53321147       1.09098327      -0.34395209      -0.22255573      -0.20271548       0.06000333      -0.29782628      -0.56510760       0.05836616      -0.13006939      -0.14146437      -0.35512679
N       -2.10709453       2.63754249       0.10061175      -1.93736911      -2.39383125      -0.63797224      -0.61248589      -0.99077892      -0.21156910       0.21195974       0.04473091      -0.52468636       0.07155620       0.38309071       0.18989565      -0.54740660
N       -0.24406284       0.48399884      -0.61885458      -2.48574924      -1.64302170      -1.89331234      -0.59291500      -0.60694329       0.00653818      -0.17216744       0.09739864      -0.73775348       0.20469289      -0.13493929       0.06339045      -1.14390517
N        0.16145664      -0.34222046       2.84258008      -1.28487968       0.59566885       0.73372132      -0.63856578      -0.82876735       0.13504352       0.51732356       0.29811654      -0.50217998      -0.27103096       0.36935688      -0.18984049      -1.07505820
N        2.87930632       0.14337218      -2.51550031      -0.83074349      -0.97750336       0.94628489      -0.43346214      -0.35113986      -0.27822861      -0.05443671      -0.33790109      -0.40887526      -0.03208841      -0.00249771      -0.02785135      -0.14376959
C       -0.70846009       0.80519646       4.87522221       0.05737806       0.08922213      -1.98065603      -0.66754526       0.03933918       0.00973321       0.01466879      -0.02172736      -0.09160609      -0.17512894      -0.02126326      -0.17768807      -0.26211453
C       -2.97699928       1.44439960      -0.32480285      -0.47940820       3.15851116       2.75367975      -0.16895066       0.29452597       0.12218636       0.04631711       0.17873649       0.33802143      -0.00975187       0.05662990      -0.01226542       0.11165074
C        0.09571201      -3.13365054       0.42042410       2.93299866      -1.28925824      -1.91274095      -0.52234834       0.06809645      -0.01063359       0.00569824       0.00629353       0.13927687      -0.04406464       0.02622684       0.04800947      -0.25569369
C        1.17254806       2.01451349      -2.06166553      -1.05280030      -0.01369607       1.85862505      -0.38597164      -0.01238675      -0.02916636       0.05180717       0.05619817      -0.00425766      -0.00579392       0.00757051       0.08278781       0.05067419
C        0.76030165      -2.01027131       1.22191656       1.68280768      -2.90338039       0.23715530      -0.21283953       0.16813572       0.01688259      -0.01097366       0.01541282       0.08035898      -0.00531534      -0.01981360       0.12183811      -0.04916402
C       -0.19822633       1.72990346      -1.33840919      -2.29980016       0.26958266      -0.67182869       0.03545133       0.25446241      -0.01141262      -0.09984719       0.00388419       0.21631636      -0.32969938       0.07747256      -0.35288434       0.40735262
C       -0.02652347      -0.79400575       1.48327017      -1.09800446       0.91905689      -1.14111364      -0.00324576       0.02496785      -0.09735960       0.12616212      -0.16121470       0.17899827       0.28492286      -0.11610355       0.15034119       0.58683322
H       -0.24821401      -0.27059403      -3.31516480       0.10506763      -0.07022842      -0.24752358       0.19173501       0.08825336       0.04037520      -0.00924770       0.01038095       0.11565544      -0.03498522       0.03627663      -0.00344314       0.21023448
H        3.58625650      -1.86300254      -2.78644729      -0.03193693       0.07338101      -0.09042804       0.15599765       0.13660831      -0.02276608      -0.03045939      -0.00632857       0.11323730      -0.01582791      -0.04700794       0.00683441       0.14930337
H        1.26924467      -2.43701410      -3.32017255      -1.10194659      -0.42573977       0.38821641       0.46385577       0.32577220       0.24724118      -0.20170289       0.36324633       0.75222780      -0.28886230      -0.18196580      -0.10775901       0.61056046
H       -2.49709296       3.36944699       0.71331561       0.45015001      -0.71410102      -0.97415847       0.38468236       0.13753481      -0.07857322       0.02086278      -0.08657254       0.18273501      -0.03101589       0.01150097      -0.00696196       0.27289877
H       -0.90847117      -0.29312068      -0.92075342       1.42818379       0.86353320       0.40296248       0.41190088       0.25505803       0.06061285       0.00399436      -0.05374051       0.70816412       0.19096165      -0.05860321       0.19965495       0.17773512
H        0.89588183       0.32057446       3.00561762       0.27560088       0.08956574      -0.32564807       0.37367767       0.22279865      -0.01918881      -0.01105225      -0.05099125       0.20504674      -0.10125893       0.06919097      -0.05353240       0.22481358
H        3.57186651       0.37052041      -1.78849173      -0.51802677       0.30726665      -0.87572235       0.40672758       0.37626608       0.08691980       0.00350476       0.08726404       0.25634399       0.00449395      -0.04015244      -0.05052714       0.27664118
H       -0.88991839       0.28143370       5.78731728      -0.09967649      -0.21227123       0.55192041       0.20723926       0.08149848      -0.02753960       0.01599072      -0.01810098       0.03884466       0.04479230       0.01203548       0.01198900      -0.02610637
H        0.30766004       1.19159842       4.80537701      -0.00258495      -0.09601727       0.39491501       0.16579349      -0.08659066      -0.06010197      -0.01498951      -0.03062209       0.04060102      -0.01813785       0.04829479       0.00761161       0.05055383
H       -1.37822366       1.67648458       4.77158070       0.12312368      -0.58940995       0.13281564       0.19220959       0.01718086       0.06308074      -0.01918118       0.05479430      -0.00351739      -0.02588280      -0.03286374       0.01270951       0.05848701
H       -2.72082782       0.63237065       0.28247768       0.05461889      -1.26897776       0.76941317       0.12921593       0.05844133       0.00134244      -0.03638163      -0.05583887      -0.03990111       0.02874142      -0.04507612       0.03800214       0.04450910
H       -4.01006031       1.76196551      -0.14571849       0.22813725      -0.26245949       0.21464817       0.11391077      -0.12015605       0.00665879       0.02513004       0.07180042       0.01549796      -0.01378851       0.03813270      -0.02758627       0.09141937
H       -2.96201992       1.18147373      -1.32196355       0.68142927      -0.16188645      -2.16414022       0.12137941       0.06854656      -0.05395657       0.04656784      -0.05968833       0.01945717      -0.01279351       0.03035564      -0.03642779      -0.04547051
H        0.75240058      -4.03555441       0.43779659      -0.36304215       0.59742606       0.61069059       0.14484750      -0.00737384       0.10657334      -0.03937690       0.06869841      -0.11780598       0.00098944      -0.00083073      -0.03640011       0.04627295
H       -0.84113955      -3.42721415       0.76284945      -1.66730845      -0.12007912       0.86159205       0.18641944      -0.04672406      -0.04949035       0.03499074      -0.00357225       0.06819433      -0.00566283       0.01749408       0.00304177       0.01000044
H        1.86954021       2.34670448      -1.27624989      -0.17625660       0.09696642      -0.61639577       0.19651893       0.02009857       0.03166326      -0.02945073       0.02870578       0.07091443      -0.01409326      -0.06516145      -0.04896761       0.10447589
H        0.97832793       2.76536202      -2.81962466       0.38555562       0.05767091      -0.00820013       0.18487787       0.07784029       0.03743344      -0.00163740       0.01598422      -0.01394500       0.01115266       0.01630712       0.03414653      -0.00894533
H        1.82541847      -1.81811833       0.80981600      -1.68060958      -0.26651067       0.87868506       0.10581930      -0.13023303      -0.01765336       0.05224692      -0.04848869      -0.01653576      -0.01547533       0.08910339      -0.02119283       0.03915586
H        0.79581970      -2.55722380       2.19100904       0.78154123       0.83566558      -0.34265330       0.14971446       0.04753338       0.01747708      -0.00153861       0.00670835       0.00084028       0.07387119      -0.02821768       0.07860269      -0.09778203
H       -0.95191729       1.63209867      -2.15947056       0.68179816      -0.34686714       0.30121773       0.09520438      -0.04763224      -0.00591963      -0.07950748      -0.04093455       0.01947721      -0.01241927      -0.07171817       0.03134323      -0.06041026
H       -1.12794137      -1.05830765       1.32252383       1.50663793       0.68782091       0.35106540       0.15642607       0.02549303      -0.01012894      -0.08423861       0.00225329       0.04804158      -0.00340031      -0.01709930       0.02862996       0.07018756
45
Properties=species:S:1:pos:R:3:force:R:3:mbi_charges:R:1:bec:R:9 energy=-202.7807159423828 dipole="_JSON [[-0.5667235851287842, -0.8141227960586548, 1.1476283073425293]]" quadrupole="_JSON [[[-32.73128128051758, -2.745558500289917, -1.638418436050415], [-2.745558500289917, -29.956871032714844, -2.096660614013672], [-1.638418436050415, -2.096660614013672, -28.986982345581055]]]" pbc="F F F"
O       -1.64674878      -1.55874753       3.10932565       1.55039787       0.32135865       1.59380209      -0.71013772      -1.10837378      -0.17413279      -0.06739102      -0.13511062      -0.41490223      -0.06528448      -0.35091570      -0.01982776      -1.08340055
O       -0.91103399      -0.77174187      -3.83107615      -0.04039462      -1.20994508      -1.04434502      -0.76395911      -0.67024653      -0.33714908       0.11021217      -0.28330148      -1.41033156      -0.21948290       0.04498104      -0.17263673      -0.97999741
O        2.87559271      -0.31919727       1.89341545       0.27730760      -0.69034111       1.07945311      -0.65782845      -1.07396758       0.10285238      -0.58549961      -0.06928680      -0.59620599       0.21102638      -0.31855310       0.34773036      -1.03526494
O        1.70307398       3.21822071      -0.25767761      -1.69551551      -0.94155854      -0.55873084      -0.67010152      -0.93905145      -0.04310479      -0.34319496      -0.25148071      -0.90428264      -0.10038997      -0.27640769      -0.04261947      -0.54913807
O       -1.65053761       0.81142151      -2.53839588       0.68192035       1.23219478      -0.07689225      -0.81044918      -0.87915001       0.28576553       0.27294771      -0.07191068      -0.95560139      -0.15314781       0.06729103      -0.41368193      -0.86757373
C       -0.53043330      -1.38844228       3.69914913      -2.63849330      -0.35154882      -4.86457157       0.83765197       1.50663464       0.30687457      -0.31957891       0.19915564       0.29662495      -0.20048118      -0.05115831      -0.22920758       1.48187129
C       -0.75848520       0.34428442      -3.30778551      -1.02052665      -0.73680413       1.45427895       0.93187058       1.04146747      -0.02276171      -0.36732710       0.31952284       1.35693991       0.50296980      -0.10784784       0.81282972       0.69420529
C        1.88359237      -0.23594132       1.18005443       0.15150449      -2.78185058       3.61302257       0.65209115       1.11086358       0.24908733       0.36126449       0.03477723       0.95142680      -0.92705876       0.48048397      -0.85074839       1.40803800
C        0.72142625       2.56794167      -0.73432565       4.85395956      -0.14194620       2.20349598       0.67201972       1.30026771      -0.22663736       0.61750599      -0.06192026       1.04189069      -0.02240072       0.51712052      -0.01271000       0.39944599
C       -0.65152788      -2.29168797      -1.36055267       2.05123377      -1.93744731       2.62920904      -0.08291879      -0.02464986      -0.06752361       0.21277992      -0.07430609      -0.01365137      -0.10106337      -0.21591821      -0.01585804       0.14062717
C       -0.67231381      -2.43745565       0.01863861      -0.43677053       0.66097426      -2.68059826       0.12519258       0.07319358       0.07725416      -0.01096660       0.13054604      -0.14610602       0.23622641       0.29228450      -0.03795595       0.21861839
C       -2.62974381      -1.65275645      -0.61750054       1.48493302      -1.73468971      -1.21261954       0.21412584      -0.01787614       0.07485264      -0.01681472       0.00259233       0.13482798      -0.07124738      -0.08247478      -0.06155924       0.62013747
N       -1.87343717      -1.96874404      -1.75658488      -2.69418502       2.25435567       2.09972239      -0.33078673      -0.09786150      -0.09988542      -0.18952916      -0.07637879      -0.34886284       0.16239560       0.13987129       0.29090050      -0.88567233
N       -0.32507914       3.13855863      -1.22325552      -2.78783011      -0.33321327      -2.34547734      -0.54685181      -0.88248182       0.19972209      -0.31387875       0.34369510      -0.90977238       0.13690592      -0.26368120      -0.05239197      -0.51726440
N        0.56672120      -1.18288362       2.98252916      -0.40905982       0.23307598      -0.67345184      -0.61859936      -0.81155940      -0.21791709       0.50262066      -0.13674054      -0.43085906       0.08116950       0.34199150       0.10256080      -0.95791828
N        1.93128824       0.58641112       0.21223021      -2.69432378       1.89988101      -3.42443371      -0.53213555      -0.33380644      -0.21242038       0.21071896       0.17496425      -0.75282192       0.55597628      -0.25878353       0.48852806      -1.17796084
N       -1.96088552      -2.10364771       0.47419387       1.39799845       0.65745312      -4.02946186      -0.39271846      -0.04766638      -0.12474238       0.03869531      -0.11056803      -0.13150983      -0.02435136       0.03164587       0.05103462      -0.89564708
C       -0.29904532      -1.48667455       5.08734465      -0.27014756      -3.03615642       2.59899783      -0.69763976      -0.02769720       0.00132999      -0.18149386       0.00003593      -0.01317037       0.16274564      -0.07103498       0.09007841      -0.46231396
C       -0.54948050       4.57520580      -1.14662075       0.63245368      -1.17919469       1.87631786      -0.21929814       0.07662695      -0.06990442      -0.09367266      -0.20621940       0.53237674      -0.03992328      -0.06140832       0.06484701       0.18925936
C        0.61475801       0.91496229      -3.39406872       1.07414627       2.89834499       1.27613735      -0.53877467      -0.22807539      -0.12113325      -0.02321057      -0.07637033       0.16787344      -0.03411198      -0.07394431      -0.04706619       0.00980438
C        0.54036462      -2.37322855       0.80016583       0.26991332      -0.51354688       1.07550371      -0.34435815       0.08237895       0.00524608       0.03237541      -0.05576107       0.05258405      -0.13095156       0.03248661       0.07829260      -0.04533274
C        1.43771458       0.64701355      -2.10702538       0.26050717      -0.95973325      -1.36354971      -0.20196028       0.10519471       0.02302797       0.04182144       0.02714755      -0.03843536       0.00080547      -0.00105127       0.10752332       0.07595375
C        0.62729311      -1.06201279       1.53818798       0.70835513       2.20550036      -0.41792786       0.06063326      -0.13221991      -0.13641234      -0.10699628      -0.08870062       0.17544054       0.03188034      -0.11323542      -0.00350399       0.68010655
C        0.92188156       1.01137733      -0.76068783      -1.17226899       1.68426335       0.46881858      -0.05362783       0.20321468      -0.04328851       0.12413791      -0.05411224       0.09912203      -0.06173186       0.10750115      -0.20114775       0.49619460
H        0.27963126      -2.46316624      -1.93865132      -1.44260001       0.33270076      -0.01531171       0.18705390       0.06803721       0.00228827       0.00084391       0.01035287       0.19359518      -0.00119866      -0.01187834       0.00270944       0.12903399
H       -3.55412030      -1.10623038      -0.59828389      -0.13714784      -0.32397792      -0.19201100       0.17421378       0.18395462      -0.00036512       0.00908092       0.00877748       0.16137565       0.00041640       0.00280923      -0.00296952       0.10075130
H       -1.88291013      -1.43270171      -2.64482617      -0.48234090       0.14964411      -0.97854871       0.43953112       0.28632641       0.24320263      -0.10605397       0.21158703       0.58715145      -0.34377937      -0.19259499      -0.55840914       0.93493295
H       -1.04267919       2.59786749      -1.75565648       0.86346352      -0.15930872       0.77380407       0.39348108       0.28941560       0.13794675       0.09113618       0.11296212       0.40242406       0.16320737       0.03725042       0.18563681       0.32222972
H        1.35010815      -1.10844684       3.56910229       1.80576169       0.38471794      -0.32635751       0.38993189       0.24365160       0.03635835      -0.03067382       0.01916226       0.24632843      -0.01118953       0.02087424      -0.01857578       0.18671820
H        2.62942338       1.22536540       0.42207223       1.70804584       1.76277077      -0.46652409       0.40622887       0.23821290       0.05302262      -0.07003606       0.00331097       0.31013232       0.03986092      -0.01243973       0.02541229       0.19082680
H       -2.13129973      -1.91336906       1.43087220      -0.37745851       0.35364628       1.63338196       0.44420546       0.29341094       0.07573881       0.04321889       0.08213151       0.25495934       0.10673507       0.12773767       0.06273857       0.93504115
H        0.25006223      -2.49806309       5.23685789      -1.37613535       1.24438429      -0.00332415       0.18633324       0.05549970       0.07524685      -0.00826632       0.04952389      -0.01233767       0.01805537       0.02977252      -0.01686414       0.01832459
H       -1.27304709      -1.45370936       5.59604168       0.78547323      -0.02667543       0.25259188       0.22657105       0.02615738       0.00075925       0.06517969       0.00761837       0.10520923      -0.02067430      -0.00296248       0.00145706       0.06779375
H        0.44850338      -0.83435327       5.42725372       0.50103027       1.40442157       0.65849513       0.20920776       0.03257927      -0.07162474      -0.00297952      -0.06429447       0.04907066      -0.04672118       0.03341680       0.01360031       0.06328966
H       -1.33382702       4.58886719      -0.37631610       0.33329335       1.18012261      -0.14063513       0.11936954      -0.03972194       0.08569729       0.08257513       0.02911596      -0.01163689       0.04700908       0.09835994      -0.05472429      -0.01407888
H        0.42605889       4.98189163      -0.83491910      -0.81390381       0.30556390       0.00235492       0.16580452       0.07368213      -0.12722267      -0.00130001       0.01516948       0.09757382      -0.01011382       0.01136166      -0.04531263       0.07762208
H       -0.90317500       4.97631931      -2.05771327      -0.24966452       0.32017252      -0.95063752       0.13405646       0.06547494       0.05208828      -0.03241400       0.05003764      -0.01526176       0.01339546      -0.04773056       0.06652081      -0.04810372
H        1.24394393       0.37030321      -4.08467913      -0.44387648       0.57219106      -0.93348628       0.19736892       0.00295119       0.00428439       0.04211195       0.03951615       0.01662646      -0.08199542       0.03637624       0.00009938      -0.00680670
H        0.58157587       2.05357432      -3.46360755       0.12818049      -1.51255500      -0.75306070       0.15785423       0.01041458       0.00389265      -0.02151088      -0.02374502      -0.13597834       0.08283502       0.01130252       0.01831911       0.08899435
H        1.45857620      -2.64026904       0.27559423      -0.38886979       0.02818338      -0.14792810       0.17965749       0.01049251       0.02477017       0.00985879      -0.01648568       0.09298258      -0.04366245       0.03654730      -0.05173394       0.01267456
H        0.38732159      -3.03341579       1.59011078       0.42826802      -1.71044946       1.34158242       0.16712292       0.02087378      -0.03829402      -0.00110393      -0.02080389       0.01138271       0.08293624      -0.04264937       0.09064119      -0.03149636
H        2.51804996       0.91159582      -2.25729036      -1.14966774       0.26124468       0.30278796       0.13482010      -0.09544325      -0.04476589       0.01442146      -0.05268080       0.07506657       0.00340060      -0.02874134      -0.02055975       0.01173386
H        1.43101668      -0.41073418      -2.11260509       0.45687675      -1.43543184       0.26875570       0.10916698       0.05645570       0.02542786      -0.00147819       0.02155618      -0.19474632       0.03532106       0.01222618      -0.02681760       0.00259227
H       -0.16137612      -0.40886641       1.16240454      -0.39125046      -0.24523202       0.68025434       0.12183522       0.00083142       0.08006051      -0.04926767       0.05009681       0.00948285       0.01274702       0.00843689      -0.00569091      -0.01311759
H       -0.08678824       0.61530352      -0.54543525       0.70241731      -0.38434392      -0.27863446       0.13478474      -0.04894966      -0.04792966       0.06006239      -0.01380983       0.01267642       0.02371128       0.06284740       0.06158162       0.01428157
46
Properties=species:S:1:pos:R:3:force:R:3:mbi_charges:R:1:bec:R:9 energy=-199.97042846679688 dipole="_JSON [[-0.25587958097457886, 0.8446027040481567, -1.0920721292495728]]" quadrupole="_JSON [[[-28.44308090209961, -1.7953025102615356, -0.0822991132736206], [-1.7953025102615356, -29.78384780883789, 1.9251807928085327], [-0.0822991132736206, 1.9251807928085327, -24.499677658081055]]]" pbc="F F F"
O        3.18119216      -3.36312604       1.31394982      -0.27614072       0.91449302      -0.00831498      -0.65926522      -0.76188478      -0.27007750      -0.04707993       0.07617213      -1.10706456       0.22859483      -0.17248117       0.10475998      -0.42982035
O       -2.41398191      -1.51523447       0.46278068       2.00997949      -1.82049882      -1.16688192      -0.76606268      -0.99622673       0.16000159       0.02753346       0.44512508      -1.07276596      -0.27443996       0.17620028      -0.33419385      -0.95240867
O       -1.05215192       2.13868427      -0.59193021      -0.18738027      -0.19771053       1.38842630      -0.61520863      -0.61697390       0.25933632       0.13590028       0.14026416      -0.70774690      -0.00966389       0.46084768      -0.37702326      -1.18740755
O        1.81092358       1.18549991       1.50069535      -1.15623140      -2.02320123      -1.72701728      -0.66703224      -0.96338557      -0.00115654      -0.08932804      -0.32315999      -0.78713055      -0.31013651      -0.12129784      -0.24238659      -0.55423322
O       -4.02482748      -0.04289991       0.40951154       0.64429992       0.79544860       0.21441421      -0.75752228      -1.20824411       0.21786442      -0.12317226       0.23907015      -0.67876750      -0.05629831      -0.35054657       0.01098631      -0.74240356
C        3.84809256      -2.31940961       1.28014958      -1.00149870      -3.91897869       0.19424094       0.85185033       1.13829262      -0.12645440       0.37902257      -0.57549406       1.74937802      -0.60682884       0.58118482      -0.50960646       0.50248863
C       -2.95512462      -0.49454588       0.87569594      -1.80373240       1.05418146       2.03635979       0.85445082       1.32210053      -0.41337687       0.32706434      -0.74745613       1.10654257       0.54696344       0.37999031       0.46071229       0.87068142
C       -1.42046237       2.07110596       0.59652996      -1.09278476       0.29502550      -1.43249559       0.64410913       0.83219694      -0.80132553      -0.37047500      -0.52482388       1.03587347       0.03865814      -0.54035578       0.45964894       1.22890831
C        1.22446859       0.18938255       0.95386410       7.11613464       2.98947597       2.24379826       0.69980353       1.81314869       0.02347498       0.06391661       0.30425708       0.72399060       0.46477693      -0.05191080       0.38201157       0.39819652
N       -2.35970354       2.95014811       1.07502222       1.02848852      -0.62879205       1.01432562      -0.54922432      -0.72899010       0.49242537       0.15954007       0.54564082      -1.04965853      -0.16637031       0.09236925      -0.18907000      -0.52851338
N       -0.01669031       0.01426810       1.01440144      -7.09096050      -2.86545277      -0.40758052      -0.52842182      -1.65874175       0.07179898      -0.06019255      -0.02823658      -0.44404686      -0.05365550       0.10914194      -0.07874840      -0.41502311
N        3.39146090      -1.19609094       0.76118970      -1.33717752       2.84748745      -0.74475813      -0.59082705      -0.78923505       0.53914186      -0.29419476       0.58516930      -1.01666313       0.32918239      -0.34667606       0.42231959      -0.67109380
C        5.23572254      -2.42236638       1.77208185       3.24876761      -0.05408058       0.74055040      -0.69417059      -0.23765021       0.05163828      -0.16598482       0.09584034       0.00020643       0.00416775      -0.21907715      -0.00462893      -0.01662917
C       -2.79393625       4.11369228       0.33788672      -0.89340407      -0.46959472      -0.78590631      -0.18915808       0.24818252      -0.12758226       0.08843565      -0.19644865       0.55456475      -0.07803104       0.17870897      -0.20878661       0.25184128