48
Properties=species:S:1:pos:R:3:force:R:3:mbi_charges:R:1 energy=-211.4049835205078 dipole="_JSON [[1.4161200523376465, -0.22525370121002197, -0.13473190367221832]]" quadrupole="_JSON [[[-32.72858428955078, 0.07165049761533737, -3.346714496612549], [0.07165049761533737, -29.359888076782227, 3.5774261951446533], [-3.346714496612549, 3.5774261951446533, -27.273481369018555]]]" pbc="F F F"
O       -4.54061460       2.29416180      -1.14474487      -0.41510427       0.02889462       0.15141389      -0.65313548
O       -1.20914352      -1.30508864      -1.07884669      -0.20518404       0.37200791      -0.74034941      -0.79457569
O       -0.30311549       2.51385593       0.96384400      -0.47070888      -1.03934991      -0.68741173      -0.66020316
O        3.06822014      -0.57603824       1.06853962       0.61065859      -0.12240410      -0.44518831      -0.65033704
O       -1.55450237      -2.39458060       0.74947351      -1.23375809      -0.84190834       2.09411454      -0.79735798
C       -4.02238941       2.82581615      -0.16856909      -1.72943342       0.60171777      -2.11084604       0.81021214
C       -1.76342869      -1.39923549       0.05040580       1.14946866       1.35895014      -2.68324780       0.92590255
C       -0.59160340       1.60098457       0.15657902       0.05286055       1.33477581       1.27802932       0.65908569
C        2.21462464       0.31466180       1.05735946       0.89070630      -1.82524037      -0.26860008       0.65841395
C        1.03524029      -3.29596806      -0.63828284      -0.28143504       1.54851878      -0.80694246       1.05324888
N        1.04164660      -2.65842581       0.47204959       2.10651278       1.83213699       2.38181663      -0.95902318
N        1.62809300       0.65033978       2.19406629      -0.59557456       0.57248032       0.90064764      -0.55694854
N        1.95567489      -3.13125014      -1.54492927       2.79864144       0.05097965      -1.69789708      -0.67859679
N       -2.90130091       2.37621880       0.32701874       3.15480208      -0.75652122       1.91944981      -0.60180831
N        0.34531608       0.86462408      -0.43491912      -0.17686233      -0.64501315      -1.20695567      -0.57268131
N       -0.01876211      -3.96892643      -0.96211064      -2.69919062      -1.94725752       0.61852890      -1.00400066
C       -4.61399126       4.10857821       0.43644971       0.01522303      -0.40169236       0.23438971      -0.68569458
C        2.00127792       0.18252897       3.54801393      -0.24576683       0.28176072      -0.89067596      -0.17183311
C        2.88354874      -2.00037456      -1.75078917      -0.64393961      -0.22781740       1.82456911       0.00919702
C        2.14887547      -0.76488614      -2.24174714       0.31554252       0.29381499      -0.92755640      -0.26676783
C       -2.51983428      -0.13683107       0.47921497       0.38549349       0.53248000       0.62866288      -0.53778720
C        2.56380534       0.54536825      -1.57650471      -0.79500657      -0.43041456       1.19567871      -0.25912786
C       -2.06140351       1.23953485      -0.17432523      -0.70679808       0.10212354       0.03420811       0.02885796
C        1.78470182       0.95665187      -0.27085719       0.22793837       1.39303768       0.44970497      -0.01879649
H        1.77159953      -1.94758153       0.60254937      -0.26887307      -0.69270444       0.24624689       0.44079137
H        0.19359389      -2.55542636       1.01005244      -0.43380919      -0.12138962      -0.13214862       0.47979283
H        0.88759208       1.31381655       2.13514900      -0.39977214       0.68373758      -0.01014715       0.38899955
H        1.75452590      -3.64146614      -2.36282206      -0.00058115      -0.47145832      -0.90350640       0.36455980
H       -2.46064878       2.97242618       1.03045392       0.07895321      -0.69150198      -0.35910279       0.36889213
H       -0.02572447       0.16308641      -1.07753539       0.02999538      -0.17473830       0.40748340       0.40425253
H       -0.80604458      -3.63400078      -0.37508407      -0.07784429      -0.42469192      -0.43813574       0.47867373
H       -0.22876857      -4.10346460      -1.92866659      -0.04176066       0.00869284      -0.17158346       0.41545105
H       -4.15996456       5.01208448       0.00851804      -0.05707851      -0.40424988      -0.00981775       0.19185999
H       -5.67926788       4.09216022       0.19803959       0.23730004       0.12019651       0.06688964       0.20398653
H       -4.48378611       4.14620686       1.52438736      -0.02141668      -0.00076313      -0.23357445       0.16827239
H        1.10342121      -0.02601594       4.11531115      -0.20202152      -0.04572481      -0.04377535       0.11841168
H        2.58277750      -0.72062731       3.46663356       0.22322482      -0.09269240      -0.04198773       0.14460103
H        2.54968691       0.96103734       4.07209253       0.17751928      -0.05996723      -0.05592109       0.11653168
H        3.34822559      -1.78370142      -0.77911240       0.02050127      -0.09562532      -0.42772406       0.13803200
H        3.66431880      -2.27227783      -2.44942284      -0.04081553      -0.39574128       0.05588489       0.10903276
H        1.06640530      -0.89785397      -2.27860737       0.10475848      -0.12283190       0.38274473       0.15411884
H        2.41814280      -0.67429125      -3.29851079      -0.11131369       0.19408958       0.02652510       0.10809002
H       -2.33749676      -0.09467450       1.54167604      -0.11231136       0.37722322       0.52540666       0.15775521
H       -3.59774542      -0.21173003       0.36985976       0.00652920      -0.15131116      -0.27063429       0.20459864
H        3.63428378       0.57288414      -1.38927174      -0.02772555      -0.10405570       0.19286746       0.14736199
H        2.36521339       1.29702640      -2.30577779      -0.20822245       0.85170221      -0.25530365       0.13876644
H       -2.16520977       1.17251515      -1.27040052      -0.10989408       0.00026758       0.56942993       0.14854562
H        2.03393626       2.01814985      -0.07590589      -0.26851752      -0.25684232      -0.36149627       0.13228528
45
Properties=species:S:1:pos:R:3:force:R:3:mbi_charges:R:1 energy=-204.83729553222656 dipole="_JSON [[1.1195610761642456, 0.9216681718826294, 1.9924442768096924]]" quadrupole="_JSON [[[-22.762807846069336, 5.762643337249756, 3.952751874923706], [5.762643337249756, -31.6904239654541, 1.8946834802627563], [3.952751874923706, 1.8946834802627563, -28.846660614013672]]]" pbc="F F F"
O       -2.23458791      -3.72429705      -1.22198045       0.40555233      -0.00613546       0.44593909      -0.63854086
O        1.69998252      -0.22619939      -2.34720993      -1.61592484       0.95597017      -0.49826682      -0.82511401
O       -1.68013489       3.92587900      -0.89612740       0.02304184       0.39282340      -0.00865743      -0.60899955
O       -1.05844474       0.08306783       1.32475364      -0.51983696      -0.45472726       0.92306244      -0.66551298
O        3.50578952      -1.17875421      -1.61946917       0.33984223      -0.48108074       0.07878945      -0.78305000
C       -2.28294563      -3.39224052      -0.04004657      -1.73180974      -0.77366251      -1.46735203       0.80447102
C        2.29754353      -1.24425006      -1.92545700       1.82751882      -0.05807104       1.07538116       0.93777698
C       -1.53425789       2.84164333      -0.36576167      -0.23162299       0.13863301      -0.38782448       0.66985226
C       -0.60717082      -0.21396956       0.22217333       0.10553259      -0.23642680       0.67278516       0.68603665
C        3.13629270       2.30437469       1.56860650      -1.24202335       0.58504570       0.76799434      -0.15980153
C        2.18261600       2.04384613       0.62629402       0.63352263       0.36012965       0.02812275       0.23351736
C        4.11409378       1.20420969      -0.07536876       0.30957702      -0.35899487      -0.41712207       0.23937054
N        4.32900667       1.79251969       1.12356889       0.28992885      -0.61535192      -0.60643339      -0.34577796
N       -2.51301718       2.17117262       0.26955158       0.22369713       0.04563183       0.36538368      -0.57629389
N       -0.13580906       0.70990157      -0.58568954       0.27699703       0.65987223      -1.75519288      -0.59841847
N       -1.55570805      -2.41176057       0.46568918       0.63008714       1.38498795       1.41037726      -0.61298770
N        2.84053326       1.37273788      -0.41510904       0.04312505       0.95442557       1.93014622      -0.36401528
C       -3.30176950      -4.03189993       0.89501822       0.48752370       0.63886535       0.21475786      -0.68341637
C       -3.88828969       2.66058922       0.43326271      -0.20370051      -0.00872056       0.33850017      -0.16329171
C        1.56128120      -2.51724482      -1.54972541       0.31831166      -0.17628261      -0.56083339      -0.50976717
C        0.77228534       2.57421446       0.69025016      -0.37813264      -0.15011068       0.42613319      -0.36002499
C        0.83259439      -2.37027311      -0.22469145      -0.55157161       2.04130602       0.43072838      -0.18905047
C       -0.14016882       2.17578077      -0.47115442       0.06893583      -1.08900452       1.17253494      -0.00317941
C       -0.58307970      -1.65726757      -0.29271999       0.93408936      -0.34337851       0.19468051      -0.03581612
H        2.93935633       2.84594107       2.51701498       0.70778829      -0.63783967      -0.91972244       0.18909495
H        4.81244421       0.61199379      -0.68913990      -0.52319819       0.48797628       0.57478207       0.19629838
H        5.21317482       1.77948964       1.63186514      -0.60198253      -0.01665757      -0.41934231       0.39643097
H       -2.18560052       1.33146608       0.74563193      -0.55467343       0.27050301       0.14639680       0.39855266
H        0.35548896       0.36496031      -1.40463901       0.00183815      -0.27194226      -0.51071244       0.40589434
H       -1.71656322      -2.11692429       1.43199980       0.19429213      -0.07076636      -0.73763037       0.37400174
H        2.38372970       0.97123027      -1.23807096       0.03293489      -0.79314882      -0.89035296       0.43560132
H       -2.74813581      -4.41443062       1.74142540      -0.07016297      -0.25420606       0.37664765       0.17075957
H       -4.04167461      -3.30082941       1.28095472       0.39115852      -0.47447488      -0.42976764       0.18306993
H       -3.74529505      -4.84597254       0.34751856      -0.34799874      -0.08917669       0.03173768       0.21314450
H       -4.44312572       2.56928825      -0.49798918       0.06160062      -0.02836153      -0.08564603       0.11617989
H       -4.00586987       3.71721601       0.75979996       0.65944433      -0.69244391      -0.19909813       0.11767337
H       -4.39769125       2.03080273       1.18448842       0.39457387       0.25759193      -0.39300677       0.11218703
H        0.87465787      -2.82746172      -2.35069180      -0.00362845       0.14832652       0.39213708       0.17165224
H        2.30253482      -3.31886005      -1.42432213      -0.16823548       0.39574394      -0.15893386       0.17085177
H        0.82430005       3.64664841       0.71431565       0.09550622       0.58894527      -0.10573049       0.16752301
H        0.30976814       2.29743767       1.65580046       0.29609486      -0.19197690      -0.55665916       0.17572451
H        0.66777736      -3.34381819       0.12579596      -0.51713908      -1.28137290       0.58627415       0.14488964
H        1.39322853      -1.85084760       0.59089684       0.10457042      -0.40609670      -0.87197030       0.10048040
H        0.30219024       2.56256104      -1.37827682      -0.15121746      -0.05085756      -0.27868453       0.15484522
H       -0.85132921      -1.60167170      -1.33303809      -0.44226542      -0.28931445      -0.32024041       0.15747835
49
Properties=species:S:1:pos:R:3:force:R:3:mbi_charges:R:1 energy=-214.5003662109375 dipole="_JSON [[0.8442211151123047, -0.9679436683654785, -1.4783262014389038]]" quadrupole="_JSON [[[-19.786161422729492, -1.6088017225265503, -6.216378211975098], [-1.6088017225265503, -33.50675964355469, -2.3180289268493652], [-6.216378211975098, -2.3180289268493652, -29.03592872619629]]]" pbc="F F F"
O       -2.92605543       0.07037923       2.29994440       0.68282133      -0.19441123       0.05136074      -0.63200545
O        0.73165023      -2.74681640      -2.24746513      -0.08127564      -0.60888076      -1.94152117      -0.79590863
O       -2.00120163       1.56895173      -0.36036578      -0.14948924       0.17112036       0.18015489      -0.59762442
O        1.53619182       2.90063524       2.32149553       0.27290630      -0.02547326      -0.46529081      -0.62147868
O        1.47364509      -1.84314775      -0.43061155      -0.01097954       0.29579949       1.02763689      -0.80863672
C       -3.71736574      -0.21115810       1.42040431      -0.65299231       0.89489168       0.05126399       0.84066159
C        0.59307957      -2.49881268      -1.04956126       0.15768009      -0.17956033       0.31498641       0.90863949
C       -1.31415677       0.57123804      -0.21310055      -0.66555363       0.92340302      -0.48974857       0.62157327
C        0.71444714       2.15596914       1.79573023       0.79049420       0.39446008       0.71169692       0.65254533
N       -0.24722451       1.59342706       2.53424740      -0.60377723      -0.70720530      -0.84459716      -0.54364687
N       -3.39103842      -0.73935556       0.22945929       1.03831637       0.11811683      -0.72799873      -0.63857019
N        0.02439612       0.63983965      -0.08165559       0.72910935      -0.36554155       0.26766926      -0.59570533
C       -5.18920994       0.12329450       1.55967569      -0.10558964       0.28779998       0.33154371      -0.70077682
C       -0.32230639       1.60898626       3.96463442       1.25660563       1.39476931       0.45534658      -0.18739957
C       -0.65953946      -3.01326776      -0.35518309       0.03039499       0.61024487       0.38687992      -0.49001688
C        2.38512182       1.84616649      -1.79267919       0.69210690       0.49832284       0.01982072      -0.19031465
C        2.32109356       0.54275990      -2.60258961       0.03825328      -0.02031417       0.20807144      -0.28882128
C       -1.26756740      -1.94031882       0.53697032      -0.41155449       0.33205158       0.41942397      -0.23612276
C        2.26438332       1.78500068      -0.24924837      -1.13077891      -0.75339615      -0.04783160      -0.28769109
C        3.49391222      -0.36951435      -2.24044943      -0.19037467       1.28770232       0.32636356      -0.02996130
C       -2.00671577      -0.80834359      -0.27162415       0.31589645      -1.11180103       1.63979304      -0.00104381
C        0.78941846       1.84989393       0.27643144      -0.12138865      -0.63536274      -0.12602058      -0.01051851
N        3.23600006      -1.76462686      -2.63868666       1.36809766       0.62413675       0.37884802      -0.68445945
H       -0.99650657       1.10563731       2.09320879      -0.28416932      -0.29419225      -0.28147188       0.38345197
H       -4.13462400      -0.85806441      -0.41942203      -0.19094545       0.11701592      -0.38366684       0.37072566
H        0.52863133      -0.23610340       0.01967362       0.13633332      -0.00716988       0.01533506       0.40355253
H       -5.29967499       0.76394892       2.44820213      -0.00042953      -0.33562636      -0.44839048       0.20616210
H       -5.53980541       0.67103899       0.66837537       0.05579512      -0.36192924       0.42259571       0.18713738
H       -5.76271439      -0.79230452       1.71282995      -0.11368913       0.13262475      -0.13433616       0.18500751
H        0.71523893       1.56839335       4.36537933      -0.82911706      -0.22078131      -0.08655565       0.12154733
H       -0.75969428       2.53965664       4.34307194       0.07668737      -0.03179503      -0.09526815       0.10146836
H       -0.95281899       0.81288075       4.29018211      -0.13430920      -0.66412300       0.19003841       0.13673209
H       -1.41163075      -3.31446147      -1.09056926       0.36132291      -0.07222461       0.00517409       0.16049251
H       -0.41378182      -3.88129973       0.25789994       0.15910588       0.02961445      -0.11285946       0.16908523
H        1.64477623       2.54527450      -2.20047188       0.30648112      -0.06550628       0.09950156       0.12997237
H        3.39976311       2.25728035      -1.95714688      -0.52264333       0.13186644      -0.21636415       0.10310046
H        2.42140484       0.73067737      -3.66418886      -0.13983095       0.47523952      -0.28390637       0.11294746
H        1.34165859       0.09210721      -2.48205042       0.11969323      -0.47227496       0.29723072       0.16417895
H       -2.00872326      -2.43841052       1.17914522       0.18579848       0.42294753      -0.23365702       0.13755403
H       -0.54189950      -1.47210062       1.22270155      -0.17650808      -0.47558963      -0.37190223       0.12766986
H        2.76259518       0.86218667       0.09106570      -0.30441439       0.45831817       0.28009582       0.13154465
H        2.75853968       2.64041567       0.19762605       0.13148414      -0.06851077      -0.00532656       0.16506609
H        3.61802053      -0.31628621      -1.16246581       0.09578456      -0.59390312      -0.08086353       0.14201316
H        4.41665840       0.01987937      -2.69731760      -0.33854356      -0.37489185       0.02338461       0.10319328
H       -2.04252195      -1.09398508      -1.31275058      -0.12994587      -0.02901334      -0.26974085       0.13988817
H        0.33176535       2.70757890      -0.19481906      -0.29181907       0.13199435      -0.22938552       0.14295483
H        2.91996479      -1.83602214      -3.58771372       0.22839625      -0.19995990      -0.68251479       0.41492870
H        4.05970287      -2.32829452      -2.41981125      -0.49375752      -0.17232431      -0.40253809       0.40444195
H        2.42471218      -2.07080388      -2.10640860      -1.15717936      -0.69171792       0.86057240       0.47264203
49
Properties=species:S:1:pos:R:3:force:R:3:mbi_charges:R:1 energy=-214.49131774902344 dipole="_JSON [[-1.1516779661178589, 1.2588634490966797, -1.0447955131530762]]" quadrupole="_JSON [[[-28.578153610229492, -1.9236820936203003, -0.3130229711532593], [-1.9236820936203003, -32.50215148925781, -1.2435122728347778], [-0.3130229711532593, -1.2435122728347778, -26.636274337768555]]]" pbc="F F F"
O        1.31045103       3.98543429       1.68911469      -0.19764656      -1.33880675       0.61891431      -0.66443199
O        0.63572693      -0.15936917      -2.40617442       2.19170570       1.58001733      -0.05239026      -0.80464286
O        1.05604303      -4.46969509       1.03594518       1.05390286      -0.46305925      -0.06181103      -0.61710590
O        1.00257409      -0.87663686       2.40797615       0.20690504      -0.76786149       2.41344786      -0.60179955
O       -1.21585226      -1.18413222      -2.75277185      -0.30643246      -1.06350338      -0.31265548      -0.80080497
C        1.37313330       3.14755511       2.60935783       0.78760976       3.18293405      -0.85656101       0.79375643
C        0.03318694      -1.22687817      -2.58399630      -2.11319876      -0.60669374       0.57369548       0.90109968
C        0.64072835      -3.42269254       0.58828163      -0.33648431      -0.35092026       0.68506521       0.68986750
C        0.86299896      -0.31395251       1.36127019       0.49488175      -0.14334393      -0.39399675       0.67725289
N       -0.69185698      -3.20636344       0.56300020      -0.53803414      -0.47139937       0.27801308      -0.55936068
N        1.06640315      -0.96818888       0.20429218      -0.64859688       1.01719463      -2.09847140      -0.63306034
N        0.98022759       1.89743900       2.52743387      -0.26785323      -3.26412535       0.40438828      -0.60157156
C        1.98007166       3.57964540       3.95069790      -0.26636863      -0.34815121      -0.73481697      -0.67627674
C       -1.70341277      -4.17675972       1.07202113       0.51523006       0.42094353      -1.49361491      -0.18341735
C        0.78912294      -2.57203126      -2.48289108      -0.26848534       0.38021237       0.91324079      -0.49095535
C       -1.62262249       1.39992476      -0.15010387       0.01975403      -1.30713642      -0.05733952      -0.23922415
C       -1.10084999       2.58406949      -1.00163567       0.15243237      -1.08848357       0.58763218      -0.30285829
C        1.94102657      -2.61299777      -1.44663978      -0.21932566       1.04308915       0.25891304      -0.21576641
C       -1.03640974       1.35062313       1.27273321      -0.06450135       0.53298795      -1.02553141      -0.27132526
C       -1.85620236       2.65916610      -2.31140327       0.06643538       0.60153496       0.17991126       0.01283036
C        1.60327077      -2.33297205       0.05628890      -0.49538770       0.37399673       0.07356419      -0.03451942
C        0.48240331       1.16307807       1.33965421      -0.07798006       1.18330276      -0.17106402       0.00936421
N       -1.40940595       1.52747560      -3.15893650      -0.75164115      -1.26688397       0.85912442      -0.68205225
H       -1.00229383      -2.35535479       0.17446899      -0.45650983       0.77291888      -0.32242948       0.35159269
H        0.86620152      -0.46106237      -0.68249416       0.57083070      -0.43118247       0.81744522       0.40210006
H        1.05221725       1.33495116       3.37819004       0.02782183       0.12246148      -0.66657299       0.37412894
H        2.85096931       2.96403480       4.15634823       0.10886195       0.07926998       0.12514542       0.18470317
H        1.25953245       3.44450784       4.73852396      -0.22917607      -0.07824969       0.41437644       0.17685884
H        2.23862076       4.62911224       3.87158251       0.09048542      -0.08009633       0.01320476       0.20793432
H       -2.19692063      -3.81300187       1.96122777      -0.10892048       0.19277877       0.11952784       0.11469822
H       -2.43418765      -4.37884712       0.25687999       0.36622539       0.24494088       0.68597651       0.10252296
H       -1.20672464      -5.10972500       1.29677343       0.21542238       0.00792839       0.05943754       0.15210313
H        0.12047976      -3.42754531      -2.33994865      -0.08691315       0.47508740      -0.11737233       0.17546082
H        1.25168145      -2.65677047      -3.44171906       0.34596393      -0.37170893      -0.73729289       0.17210488
H       -2.72129011       1.43697906      -0.03055811       0.40996692       0.23639227      -0.22519228       0.11394294
H       -1.42714429       0.41165328      -0.65225041      -0.08876932       0.93385047       0.25533602       0.12023475
H       -0.05032508       2.39548707      -1.26514030      -0.16619216       0.31607997       0.37358019       0.14222488
H       -1.15721166       3.48082376      -0.38020360      -0.02193066       0.08536558      -0.47530732       0.17147881
H        2.69510460      -1.89682746      -1.77071822      -0.03972464       0.16236492       0.18876310       0.12805815
H        2.42140150      -3.56823564      -1.51216531       0.08930869      -0.61733150       0.14215340       0.14440364
H       -1.28576863       2.30335116       1.71720827       0.14343390       0.25628796       0.28981006       0.14417782
H       -1.51529896       0.59699678       1.86893356      -0.27925482      -0.44325960       0.20185412       0.13669987
H       -1.63411188       3.56306529      -2.85143280       0.04370676       0.39115718      -0.10762033       0.11137579
H       -2.92119288       2.62233615      -2.10578179      -0.11978719      -0.20379831      -0.39171830       0.11593468
H        2.51263976      -2.36959934       0.68662131      -0.51515341      -0.38996762      -0.45775145       0.15058504
H        0.96031511       1.59496689       0.46939445      -0.01142696       0.34872890      -0.05787614       0.13543116
H       -1.59186733       1.57985020      -4.15819168      -0.03272565       0.15234412       0.24076638       0.39899185
H       -1.78858089       0.59571314      -2.79888821       0.45934719       0.24892652      -0.68461138       0.43297076
H       -0.41700420       1.31140518      -2.97018003       0.34995106      -0.24404900      -0.26715681       0.43488884
46
Properties=species:S:1:pos:R:3:force:R:3:mbi_charges:R:1 energy=-198.09573364257812 dipole="_JSON [[-0.7801731824874878, 0.7907339334487915, -1.028984785079956]]" quadrupole="_JSON [[[-32.61161422729492, -4.545741081237793, 0.5747248530387878], [-4.545741081237793, -26.848567962646484, -5.259983062744141], [0.5747248530387878, -5.259983062744141, -21.441354751586914]]]" pbc="F F F"
O        4.48810005       0.47394192       1.78891492       0.86909807       0.36828756      -0.81826514      -0.63647163
O        0.07869196       2.95283747       0.09556419      -0.29630744       0.77854782       1.70985222      -0.80530810
O        0.24795282      -2.14824629       1.97428441      -0.06155380      -0.50543749       1.54326677      -0.57720977
O       -3.11268592      -2.52040100      -0.73106515      -3.01141357      -1.38716471      -2.56471395      -0.59348935
O        1.23506153       1.50961626      -0.94857407       1.22554111      -1.48913407       0.08776294      -0.83298421
C        3.97776866      -0.27281749       2.59315586      -0.71653849       2.28018737      -1.51029897       0.81851238
C        0.93299389       2.04243374       0.15765712      -0.41499928      -0.00618223      -1.63442028       0.92345291
C        0.53677201      -1.21107507       1.28464413       1.36714685       1.65854943      -0.54724574       0.59918070
C       -2.27831244      -1.98876679      -0.09488519       1.80304372       1.19983184       2.44144130       0.70121312
N       -2.50285244      -1.63953197       1.20814347       1.06157577       0.90395361       0.57292676      -0.60961843
N        2.65528560      -0.48744720       2.57322025      -2.03154421      -0.59405273       0.18148784      -0.62754834
N        0.07433355      -1.02659738       0.03828862      -1.55521441      -1.31330228       0.23506209      -0.58502781
C        4.66617775      -0.93758547       3.68437409       4.64482117       5.07683849       0.26975095      -0.70467353
C       -3.87822485      -1.48380172       1.72072339       2.50873995       5.58419609       0.67557913      -0.16674399
C       -1.60491979      -0.09711719      -2.26988554       1.09510565       0.19006205      -0.23406956      -0.15663801
C       -1.03667533       0.80871153      -3.35298681       2.43217683       0.72492993       3.65630817      -0.33573759
C        1.45644379       1.49357402       1.50348699      -3.20464182      -0.69858450       1.67144132      -0.53945822
C       -0.90055609      -1.50307870      -2.20171118       0.74282348       2.52465463       2.45787191      -0.27372298
C       -1.54667389       2.24097204      -3.22792339       2.17636514      -0.91548914      -1.44843578      -0.01528334
C        1.67755723      -0.07906491       1.54931736       1.79904413       0.07995170      -0.54348105       0.05081775
C       -0.88660908      -1.86164367      -0.72299051       1.56753385      -1.96930563       1.83917999      -0.05388732
N       -0.48587209       3.03048992      -2.54907060      -1.78587997      -1.63427556       0.01103212      -0.68770587
H       -1.69844627      -1.35975361       1.77306533      -0.84597796      -0.17748582      -0.38849273       0.38187096
H        2.35343456      -1.04913402       3.33180642      -0.86803150      -0.47149423       0.29725152       0.35606498
H        0.64155579      -0.38848719      -0.42180687       0.56759506       1.63244510      -1.79041243       0.39701772
H        5.80805969      -0.63186121       3.62901330      -2.32897878      -1.17629778      -0.16584568       0.18157831
H        4.44448757      -1.86897361       3.50517893      -0.49098018      -5.49362087       0.19727328       0.21817473
H        4.36659908      -0.50380790       4.59557629      -0.76407737      -0.09518144       1.28818166       0.19714452
H       -4.30372906      -0.52066100       1.22001600       0.25793222      -1.86419475       0.80046535       0.08371903
H       -3.92252851      -1.28027427       2.82758880       0.42166212      -0.51120031      -1.21406162       0.11664192
H       -4.35236454      -2.30579114       1.46163583      -2.80847168      -3.57885170      -1.05968380       0.15627152
H       -2.65163589      -0.06592661      -2.37142134      -1.52176392      -1.09588695      -0.60078573       0.10869630
H       -1.58005333       0.44344425      -1.29946542       0.96628690      -0.42281684      -0.32154766       0.12172543
H        0.11178070       0.77748764      -3.15684700      -1.85511732       0.16709270      -1.04302001       0.14641187
H       -1.33313966       0.60996664      -4.30154753      -0.26378399      -1.84755611      -2.75525689       0.15668985
H        0.51933348       1.58952796       2.11758184       0.86384875       0.53472316      -0.17838137       0.14392562
H        2.21747756       2.10134888       2.03584361      -0.20030946      -0.76461369      -0.82656169       0.22144616
H       -1.39301753      -2.33209729      -2.57536221      -1.15936279      -1.03318107      -1.68503726       0.17081422