192
Lattice="12.429 0.0 0.0 0.0 12.429 0.0 0.0 0.0 12.429" Properties=species:S:1:pos:R:3:forces:R:3 energy=-933.4166530484531 pbc="T T T"
H        3.08343138      11.45802102       4.39700608      -0.87838526       0.93070641       0.79532978
H        6.15814854      10.40468052      10.30690022      -1.12825511       0.36349158      -0.38773425
H       10.08440998      12.01007529       0.71473789      -0.94666336       0.00537426      -0.12759637
H        4.67410766       5.18281258       6.33806751      -1.32666880      -0.24186981      -0.55983735
H        4.22431712      11.69119590      10.01440018       0.31438714       0.03043662       1.13305855
H       10.24293751       5.28278657       8.55736207       0.48282848       1.05620498       1.02485328
H       11.99269055       8.76598299      12.27411626      -0.48153175       0.35184941       0.62803266
H        7.71331348       3.35224932       4.49078151      -0.12618353      -0.28964812      -0.00193377
H       11.99804249       4.97003396       1.75050860       0.27869547       0.58421427      -1.15388489
H        1.00615509       5.29286666       8.49286252      -0.12907819       1.23573911       0.51986896
H        6.91449730       9.27022128       0.88399420       1.35720178       1.62271682      -0.25082542
H        0.75945950       0.04643613       7.51936244       0.15066742       0.08025209       0.03099198
H        0.79320650       9.77632503       3.80941435      -0.05227081       1.15737354       1.07948769
H        9.82989424       7.25959880       6.77499028      -0.01630670       0.89483793      -0.88370971
H       10.56941096       7.95322669       1.56872467      -0.94862599      -1.96887952       0.39121368
H       10.17664451      10.25894050       5.32741735       0.41630511      -0.35463372       0.53419917
H       10.00761812       5.33407467      10.71409751       0.22394043       0.06521654      -0.81828806
H       10.91797930       0.60776788       9.52585666      -0.29380924       0.20318931       0.92632342
H        4.46609165       1.29008557      11.98439813      -0.86848631       1.02799252       1.66721213
H        2.17982274       0.98495597       0.07711133       0.03664890       0.76019576       0.32795487
H        3.71234300       4.58882680      11.56774214       0.57868299      -0.40708468       0.95156392
H        8.00446119       3.05452286       0.83459184      -0.55972562       0.03425622       0.25082448
H        6.78331455       6.42416187       6.28556908       0.04928758       1.66073420       0.20301569
H        6.21815860       0.07937671       0.02790970       0.52301551      -0.81625804      -0.54321081
H       11.94459522       6.00734745       4.61388958      -1.05801389      -0.58856799       0.32474800
H       11.20246835       2.51198156       2.12530056      -0.22958109       0.35311237      -0.64065651
H        9.83763208      11.96828661       3.07540334       0.09432834      -0.18601804      -0.07230422
H        5.02040761      10.64011242       0.92344377      -0.22616991      -0.11604157       0.31687761
H        5.23114491       8.03075853       7.10249769      -0.63380659      -0.09355762       0.15533570
H        9.87786330       4.46451287       6.54069889       1.32008625       0.09906265      -1.62567535
H       11.93779154       8.81543895       9.86764927       0.04817456      -0.06004801      -1.04174113
H        1.41231825       8.83600571       7.15742870       0.10779816      -0.65332266      -0.44815621
H        1.94463075       0.16270553       4.95509844       0.27268431      -0.67607913      -0.33417786
H        6.85158085       9.02652203      10.12898376      -0.13227292       0.17547822       0.09139212
H        8.60788233      12.32367323       0.03946481       0.72904474      -0.35258496       0.26632193
H        3.15533839       5.63933967       6.27031717       0.64511729       0.04194025       0.21622010
H        4.20774220      10.25363713      10.83373655       0.52618507      -0.03926042       1.02249303
H       11.39749624       6.24515572       9.30214348       0.01922927      -0.05632809      -0.46747132
H        0.67645684       7.78080946      11.91667620      -0.50826857       3.14737887      -0.54375846
H        7.90035316       3.92957447       3.11737740      -0.40172413      -0.39266171      -1.58809809
H       11.11121322       4.92906199       0.52598177       0.42214024       0.31681290      -0.62009344
H        1.31188387       6.81438779       8.34431579      -0.17104181       0.47035566      -0.21493190
H        5.77608423       8.43182315       0.45129613       1.16081323      -0.65211562       1.06956530
H        0.92803180      11.68147523       8.85755647      -0.39344334       0.12425194       1.45531404
H        0.68841741       8.27629359       3.76073169      -0.54143594      -1.39971790       1.11768115
H        8.92779583       8.31187201       6.07866124      -0.53812067       0.24967912       0.23119522
H       11.67870315       8.84158855       2.07370389       0.70916218       0.12530438       0.67212395
H        8.76656548      10.63811925       5.96357559       0.92383432      -0.19093406      -0.85849106
H        8.94180418       4.31376806      11.24425611       0.61597895      -0.10431483      -0.25884588
H       10.07386103      12.14000796      10.69044254       0.30826195       0.62418282       0.76245284
H        5.04323458       1.22136889      10.64320850       0.10996497      -0.42189089      -0.01081188
H        1.43180728       0.19091025      11.44230678      -0.80953062       0.38277602       1.16443393
H        5.09847929       4.90032581      12.15705668       0.66417229       0.50575949      -0.19362054
H        6.52647290       3.44532936       1.25761427       1.26654733      -0.50679641       0.28459549
H        6.91053082       5.13034232       5.65323451       0.12486204      -0.70056442      -0.76716617
H        6.94707060       0.90999112       0.83483901       0.70706371       1.83060426       1.37174422
H        0.42973534       6.87099537       5.54137168      -0.13240583      -0.00440449       0.03033752
H       11.79708798       2.09839727       3.38344513       0.31963714      -0.58161260       0.83238153
H       11.30069447      11.67513765       2.54308422      -0.94668217       1.03117293      -0.24791112
H        3.68970688       9.81268643       1.15083804       1.08771816       1.44671491       0.80203652
H        4.91490363       7.06814569       8.33378234      -1.71575717       1.83482263      -2.25724850
H        8.58104612       4.82146566       7.22856766       0.33569384      -0.10258688       0.38439039
H       10.89860258       9.11449631       8.70079864       1.69667884      -0.70363372       0.42205881
H        2.83737229       8.19358340       7.36849626      -1.08350926      -0.62029891      -0.93603999
H        4.48612049       1.62496267       8.18535666       0.28257277       0.46306426       1.14254082
H       12.04706934       1.67778986       0.07622370      -0.11880259       0.13349497       0.11222782
H        1.09003011       0.06908781       1.21077948      -0.97812016      -0.21808084       0.87130195
H        3.49053467      11.62868949       7.81671604      -0.00015064       0.15743732      -0.26989076
H        1.13630437       2.94653199       2.22977545       0.74189104      -0.65564217      -0.48614294
H        8.02667578       2.22775044       9.69170585      -0.05920096       0.51175452       1.15440235
H        6.75568183       7.71235394       2.91529536      -0.49279194       1.22216898      -1.82334344
H        4.22944612       0.14258731       1.59916566      -0.68940026       2.85162745       0.36715427
H        9.80156971       0.03106516       5.98546840       0.44521030      -0.06442014       0.02641603
H        1.95427646       3.36868907       9.89059025       0.24155941       0.12333613       0.55207360
H        9.67088110       5.39847830       1.83214035      -0.57746121       1.91880410       0.31412552
H        2.02893981       8.30105634       2.10018906       1.44863522      -0.13338197      -1.60042537
H        6.67854541       9.31184080       5.70072875      -0.56267776       1.41330577       0.56314262
H        9.25758624       8.72588011      11.55360277       0.04386255      -1.17288105      -1.47602840
H        1.23230532       5.32007533      10.69621474       0.43420934      -0.75161733       0.41719205
H        9.75350462       4.70995524       4.55661407       1.23471264      -0.44405137       0.11174220
H       11.75345709       9.32711988       6.78332328       0.44217140       0.96295122      -1.31882010
H        8.77224838       9.79136785       8.96517395       0.45854956       0.60991453      -0.92628820
H        8.47243677       2.14323560       7.76967840      -1.85270872      -0.74559351       0.42232594
H        2.85321991       5.92437082       9.54585862       0.97905993       0.49802194       0.10251019
H        7.95035373       7.06032941       9.25662328      -1.32386405      -0.32803952       0.37864292
H        1.57197023       5.96491802       3.80018683      -0.57806317       0.28864364       0.50281241
H        6.83235025      10.87196164       7.67517940       1.05603673      -0.50276275       0.13774671
H        5.44564273       1.41797570       5.33383715       0.38940702       0.48984808      -0.23871390
H        4.06286187       9.07907263       4.32922536      -0.83799625      -1.48248183       0.00829798
H        3.83551533       7.40932859      12.07799360       0.54797102       1.02780485      -0.78179698
H       11.87065127       0.69617077       5.92796529       0.25424873      -0.02504022      -0.41532141
H        5.05619519       3.82182283       3.10629219       0.07062272       0.90873984       0.17202071
H        0.76009589      10.82987283      11.04962621      -0.34765277      -0.64260048       0.20294663
H        1.31023732       3.38362451       7.49201344       0.46443281      -0.42310515       0.83699767
H       11.34974029       2.61588310      10.30898929      -0.56501287      -0.31049713      -0.62825729
H        7.19619992       6.70799737       0.83166626      -0.11389103       0.78078292       0.61913657
H        0.90790133       4.51190066      11.93573767      -0.12590386      -0.26807767       0.62692121
H       11.13432525       3.94654778       4.67740905       0.35807412      -1.31823375      -0.86671566
H       10.05766576       1.55723010       6.26121271      -0.00467537      -0.03961343      -0.03327613
H        2.69415253       2.35235464       8.87560398      -0.22328672       0.49361417       0.65507170
H        8.97254131       6.35348008       2.91795303       0.64848410       0.09595549      -1.92881090
H        2.61979584       6.98704344       2.06675624       0.87126004      -0.28620137      -0.42723638
H        7.08755052       8.12339085       5.02778257       0.19889289      -0.62831811       0.64461109
H        9.64317430       7.43788105      10.57050042      -0.17808684       0.89234236       0.55227792
H        5.83631428      11.70214732       7.09364713       0.11447934       0.19088118      -0.71281060
H        5.17960376       1.82726969       3.93996516      -0.83343068      -0.43965653      -1.46123812
H       12.38462108      10.68203580       7.07198376       0.14860033      -0.74860903      -1.57640839
H        9.58086825      10.91304879       8.23353097       0.30316780       0.70966992       0.66444953
H        7.71415647       0.75070567       7.63705321      -0.48400913       1.16661372       0.60993563
H        4.05754499       5.10956729       9.36649373       1.51499764      -3.46906669      -1.27363047
H        7.11194524       6.81783357      10.50313886       0.01192856      -0.09622723       1.26168534
H        3.03875517       5.51982158       4.15705102      -0.52796461      -0.13211454      -0.95849620
H        0.12757470       2.15582842       9.58961485      -1.38432480      -0.11842090      -0.96379191
H        7.91942723       5.80090154      12.36862280       0.26943607      -0.25222293      -0.34222062
H        4.71853965      10.23030854       3.64584973      -0.27282354      -0.85230969       2.77585345
H        4.12605354       7.42451077      10.58550549       0.38628669      -0.21451597      -0.34991524
H        0.36807661       1.88136191       6.02291471       0.37882605       1.02242112       0.19478250
H        4.59995075       4.73245018       2.00658087      -0.47078084       0.21062565      -0.74052588
H        2.22706063      10.85390713      10.41954717      -0.99913775       0.90645961       0.18757807
H        1.81045573       4.05461304       6.16451049      -0.99377261      -0.50787070       0.94995652
H        6.23931767       6.38200021       3.49112073      -0.26280163      -0.24858430      -0.25339759
H        3.33266023       1.38054961       2.22909404       0.91525994      -0.25764008      -0.96619303
H        5.74021937       2.41567725       8.54347886      -1.59827102      -0.05513708       0.84068693
H       10.50516053       1.51775027       0.31091569       0.76154268       0.43000847      -0.42787362
H        1.25773500      11.18591176       1.92206428      -0.32317792       0.17110192       0.44195567
H        3.92579846       0.01028433       6.53772305      -0.17696578      -0.78143188       1.27768875
H        2.04930576       4.05486310       2.22197243       1.02993710      -0.96657377      -0.35273641
H        9.08041821       1.77197389      10.58913411       0.45218304      -0.12798934       0.54623127
O        2.88759559      12.30213032       4.88735935       0.80129397       0.05632082      -0.05277827
O        6.98651891       9.95901123      10.39656674       1.17418814      -0.54899327       0.22374109
O        9.59005683      12.20929542      12.30177091       0.09687410       0.22838966      -0.10306145
O        3.75622732       4.92137086       5.98293588       0.68787951       0.57078328       0.44650228
O        3.96876007      10.76272256      10.06855679      -1.05812640      -0.59343070      -2.05312731
O       10.47349345       5.93933148       9.33658073      -0.33094990      -0.41795968      -0.92907424
O        0.38625056       8.79250841      11.75244787       0.94811961      -3.34066713       0.02854820
O        8.07128678       4.12475322       4.03037019       0.39467017       0.61995191       1.81670214
O       11.93852650       5.37467406       0.83380257      -0.34021243      -1.09943768       1.34242262
O        1.02690010       6.15764552       9.01984074       0.25069794      -1.64844047      -0.77485775
O        6.52824557       8.45556621       1.13894865      -2.45361798      -0.43747498      -0.76030850
O        1.12988917      11.67537784       7.92905317       0.45859392       0.09082740      -1.57321434
O        0.78384064       9.04387500       3.21599776       0.40917655       0.29374290      -1.97649571
O        9.80403434       7.91068466       6.01984456       0.94652606      -1.37128664       0.75204961
O       10.96211491       8.79345995       1.44183105       0.01403111       1.80522955      -1.18945788
O        9.40007516      10.81624767       5.20940839      -1.48003220       0.80870559       0.29928330
O        9.63427916       4.94777860      11.52767227      -0.99915998      -0.53161756       1.67875321
O       10.42545315      12.23252662       9.79285434      -0.11863013      -1.23606538      -1.94370949
O        4.80987284       0.63079324      11.40602520       0.80041699      -0.14871007      -1.76049080
O        1.25055262       0.80114134      12.28356795       1.15550327      -0.27713762      -1.41663377
O        4.40060694       4.24194286      12.20369871      -0.89678893       0.02635012      -0.44058383
O        7.35887781       2.97771538       1.57434174      -0.65880674       0.47442495      -0.85303847
O        6.65910207       5.50939883       6.49827667      -0.10507489      -1.07334248       0.44092639
O        7.05461860       0.01060071       0.56766297      -1.52871820      -0.91176026      -0.67220819
O        0.12605735       6.74788218       4.62602954       1.23202212       0.72600848      -0.12550965
O       11.38697288       2.88402832       3.01283165       0.26301773      -0.01916440      -0.28406448
O       10.47688642      12.23938650       2.39114725       0.97506233      -0.76857168       0.62822067
O        4.22178261      10.62617117       1.48906403      -0.74324245      -1.46302047      -0.87109414
O        4.43622501       7.64996370       7.55696266       2.85044675      -1.51774073       2.02996844
O        9.49100730       4.47294588       7.40541274      -1.89301542      -0.20169469       1.37018709
O       11.84361235       8.74277975       8.87293394      -1.76743797       0.75600702       0.69293060
O        1.92747999       8.01884001       6.92405721       0.62664769       0.94873755       1.25527656
O        6.87808118       7.09924650       3.61020504       0.74054811      -1.07890816       1.88376654
O        4.11086315       1.19527657       1.61731923      -0.37544597      -2.55682896       0.73709712
O        4.78116723       2.28910418       8.89305933       1.57075992      -0.68726614      -1.85889255
O       11.23267669       2.20488354       0.24555902      -0.68976357      -0.55429283       0.17212100
O        0.80726324      12.04050737       2.09128754       1.00454660      -0.60566409      -0.75491779
O        4.21653008      12.20210003       7.49385192      -0.49964641       0.75280560      -1.43425481
O        2.07279258       3.09151051       1.91574687      -1.85680206       1.55533246       1.05683276
O        8.40100297       2.46329039      10.60095503      -0.54083302      -0.50870523      -1.30719670
O        1.57240122       4.54636718      11.22925677      -0.33328372       1.05032429      -0.86873862
O       10.67519162       4.71296029       4.97856210      -1.69821853       1.64536151       0.46884953
O       10.35708822       0.66921523       6.51459431      -0.77436645      -0.02766449       0.00409085
O        1.84380756       2.75899010       9.13944425       0.03830724      -0.65985237      -0.88384845
O        9.38229556       6.36066256       1.97670633      -0.38015139      -1.75473758       1.78382460
O        2.75419085       7.80925599       1.52780613      -2.06500966       0.54159468       1.95859389
O        7.13111243       8.51012055       5.95530553      -0.17873471      -0.81514835      -1.09173645
O        9.10559915       8.26406395      10.66911137       0.58401645       0.44774277       1.00280886
O        6.76731207      11.41739893       6.87703382      -0.81697186       0.26636873       0.64775005
O        5.75325690       2.05639800       4.65323124       0.55818713      -0.16206688       1.56148627
O       12.17691531      10.08304096       6.25841792      -0.65442717      -0.56324860       2.25927317
O        9.12816169      10.08069891       8.07369241      -0.58495142      -1.14897053       0.76584605
O        7.57630823       1.69331657       7.99582405       2.23375777      -0.25584733      -1.21409304
O        3.85315729       5.93515453       9.68663260      -2.53987437       2.51143908       0.84164155
O        7.02488613       6.82481877       9.55353696       0.83363754       0.35749169      -1.77952388
O        2.38039179       5.60663103       3.40657424       1.00288378      -0.14936061       0.22780289
O       11.54765242       2.20002961       9.42746612       2.02036795       0.78637991       1.50013177
O        7.02433473       6.15443872       0.07494800      -0.03201124      -1.23934033      -0.80892987
O        4.51953170       9.85120367       4.62843079       1.16617928       2.22761486      -3.12182076
O        4.32367244       7.94260380      11.37779076      -0.76879115      -0.08078019       1.73359025
O        0.31973049       1.03581279       5.57781776      -0.13434005      -0.69624036      -0.09648037
O        5.06654928       4.77393589       2.84508886       0.42325758      -1.03446446       0.50264274
O        1.37035860      11.39743308      10.57074857       1.29726688      -0.68903780      -0.65035783
O        0.99675432       3.87235410       6.72598985       0.45222121       0.84913707      -1.72060372
192
Lattice="12.429 0.0 0.0 0.0 12.429 0.0 0.0 0.0 12.429" Properties=species:S:1:pos:R:3:forces:R:3 energy=-940.3780581677862 pbc="T T T"
H        5.52519019      10.16271959      11.57347400      -1.26320188      -0.21242699      -0.17751576
H        4.18029747       3.47460708      11.22915872       0.22216323       0.03501154      -0.06599759
H        0.25317024       0.51618973       3.35670396      -1.09119618       0.78379269      -0.45605125
H       10.00950382       7.81606123       0.02556418       0.56115459      -0.58677227      -0.05599313
H        0.21843055       8.69383929       5.61657627       0.36733565       1.47257090       0.88898010
H        8.02137673       4.87311270       6.32773712       0.33525213       0.42747277      -0.02804445
H        0.27721423      11.48012827      10.64198836      -0.16142534      -1.28113036      -0.19731458
H        8.55568747       2.15986815       1.96383511       0.15778755       0.11756053       0.02280993
H        3.07418968       5.13307333       5.20312141      -0.28123081      -0.02673051      -0.32258564
H        1.02199933      10.62146710       2.19925235      -0.96337669      -0.13317209       0.11260855
H        0.27805363       9.57323221       9.40297312       1.50040740      -0.47627895      -0.29980594
H        9.16177552       9.44841428       1.69667896       0.32197122       0.35465311       0.41234250
H        7.17110686       4.70162633       0.11124577      -0.33211012      -0.06347724       0.41864283
H        5.71604201       5.14234097       1.85802566       0.00410353      -0.26652248      -0.39095162
H        1.80579240       5.65218741      11.99384391       0.10204247       0.31691273       0.68153085
H        3.23949726      10.67823637       6.22400987      -0.11160922      -0.59809900      -0.61346407
H        7.87797932       1.42312088      10.56189936       0.89869490       0.18750400      -0.93844056
H        8.11897931       3.79905482       8.29686370       0.51781367      -0.49281131       0.41329141
H        3.08773580       0.80085290       0.13553101       0.08732882       0.19732102       0.16432415
H        8.79301947       1.48652480       8.26205893       0.16733445       0.28431278       0.34924056
H        0.91058922       7.80768333       3.98974678       0.73356383      -0.29853704       0.24933029
H        6.81119439       0.64461551       0.07800154      -0.78638942      -1.11241858       0.98944161
H        4.28617165       6.80962182       2.11806001      -0.40546535       0.35004240       0.13422823
H        0.12083695       0.71628385       5.61758322      -0.48399758      -0.38290071      -0.64340856
H       10.20966784       8.05588803       7.26357636      -0.29635904      -0.09645568       1.05534560
H        2.57684917       0.01645121       3.32365410       0.40184950       0.57711690      -0.55311702
H        1.65041328       3.90248316      10.38084451      -0.46316509       0.37808044       0.73037342
H        9.49589437      12.01902789      11.23266384      -0.27810405       0.15242416       0.10223549
H        1.81625932       8.18541123      11.94387789      -0.38300171       0.23269788       0.47411877
H       11.71985180       1.47218089       7.88182731       0.12012513       0.34371997       0.57109170
H        6.37191960       2.19621095       4.62687082       0.78241164      -0.40985147       0.41637837
H        7.70272635      11.13447439       9.17044159      -0.41021743      -0.31827900      -0.18313041
H        4.20733796      11.05881813      11.60442041      -0.43362052       1.06542168       0.70781779
H        4.97862555       3.51717334       9.86541378       0.20326842      -0.36535376      -0.22853323
H       11.33126343       1.26373975       2.75121144      -0.31242388      -0.69437346      -0.20425497
H       11.13650048       6.67015672       0.23648948      -0.55228202       1.07501570      -0.98366527
H        0.82818260       9.89530489       6.57989760       1.42784714      -0.13833696       0.23078041
H        9.10921573       4.42535265       5.29183870      -0.35257675       0.14078308      -0.07641141
H       12.12819672       0.21671841      11.46753758       0.26199756      -0.13536773      -0.30409643
H        8.34088094       1.15737202       3.07772026      -0.20074020       0.09023220       0.33349328
H        1.51215184       5.06596030       5.28546857       0.01822929       0.00010851       0.13184762
H        0.91832097       9.73431335       1.03987711      -0.12663339      -0.63839257      -1.06757684
H        1.69571855       9.34673163      10.05802324      -0.09162961       0.22271092       0.13210042
H        8.59753452       7.93636979       1.96982962       0.25502651       1.01423026      -0.21604934
H        5.79592144       4.09333958      12.27335491       0.01807466       0.08744493      -0.11487379
H        6.04731606       6.28842200       2.80597324      -0.80624383      -1.37871567       0.05095645
H        2.47278346       6.65952036       0.77835362      -0.35603240      -0.38980724      -1.32572348
H        3.10307990       9.44241344       5.05383428       0.82077607       1.36997366       0.68655906
H        6.46781726       1.97236825      10.79239708      -1.87602629       1.76132547      -1.22357561
H        7.41187893       5.01322233       8.83689321      -0.08305398       1.19647642       1.54672569
H        1.95772236       0.07540278      11.79115795       0.99080046      -0.62608310       0.96893209
H        9.91544314       2.20625001       9.03877137       0.39230761      -0.24343973       0.01825878
H        0.06896433       8.47871989       2.92766114      -0.21883550       0.59058393      -0.32697013
H        7.17320100      12.16778653       1.29679408      -0.16071539       0.11924299      -0.03079520
H        3.88612153       8.38362072       1.90284125       0.20311634       0.12044860      -0.36997742
H        0.97328499       1.64682279       6.42594257       0.53883858       0.22510475       0.14283175
H        8.85099760       8.07252948       7.95470230       0.11869711      -0.10519488       0.23044240
H        2.41425219      11.28756638       4.23641629      -0.07593543      -0.30391169       0.11568615
H        2.02042260       3.30908749      11.75870078      -0.45421588       0.46302736       0.07941834
H        9.64044578      10.69484683      10.48937293       0.08862404      -0.28753577      -0.00787733
H        2.56828370       9.52672156      12.01394476       0.28269532       0.16648469       0.13190616
H       12.03325335       1.03847181       9.32016933       0.13263750      -0.14053051       0.50733103
H        6.49723149       0.59218742       4.42816773       1.29004915       1.62199579       0.52790292
H        6.31061557      11.06286338       8.39540905       0.77460629      -0.07058413       0.42994540
H        4.68110500      11.66607580       9.80310499      -0.04786051      -0.32310718       0.20617987
H        6.30920713       2.57013288       8.00269012      -0.90705129       0.20947347       0.21703660
H       11.11796482      11.01873903       1.40380292      -1.06130335      -0.32172071       0.29685955
H        7.11695693       9.21861943       0.19583571       0.50486315      -0.06007183       0.57709544
H        0.59271947       3.15449677       8.81923867      -0.13400613      -0.50277675      -0.22504666
H        3.34178270       6.80378221       6.84564670       0.01447199       0.19370521       0.04881997
H        8.87584529      10.48292037       4.27834854       0.33018956      -0.04943078       0.13165610
H        5.40319115       4.29260974       4.30099406      -0.26248077       0.22897814      -0.60109283
H        8.08635335       6.14611744       3.82468433      -0.13524376       0.26295110       0.29304484
H       12.03642745       5.86361982       6.85668586       0.29813254      -0.58041414      -0.29409600
H       10.49728880       1.79848940      11.94904403       0.09568125      -1.62576484       0.66053517
H        8.00229188       0.58661790       5.83820901       0.60191888       0.04885625       0.91062452
H       10.08019555      11.57386962       5.52315424      -1.02228398       0.71108538       1.28026295
H        7.01555186       8.05469385      10.66755877       0.09034366      -0.31943581      -0.20046859
H       10.85593572       7.56479020       4.58718646      -0.59553902       0.66633661       0.18235504
H        0.17803420       5.02361384       1.81971231      -0.99067167       0.63610497      -0.81174139
H        6.99207905       7.44352479       8.54472875      -0.18197189       0.17978121       0.02331023
H       10.53585831       8.84665825       9.43342234       0.09252970      -0.44855970      -0.14871522
H        1.79884828      10.85528074       8.40827244       0.36777047      -0.46498793      -0.01030543
H        6.75076209      10.56281039       4.29609290      -0.08922186       0.33631879       0.22579824
H        4.02066010      11.09125559       1.36179545       0.38742526      -0.25940649       0.60119876
H        9.48691172       5.83138807      11.48029468      -0.09326258      -0.00032549      -0.18436390
H        5.54758952       1.11468697       2.04809402      -0.26959789       0.27957094      -0.14183043
H        3.36736867       7.46154833       4.93765690       0.17818668      -0.08193543       0.49920563
H        2.67492818       6.57926323       8.50349673      -0.23266546      -0.09530116       0.47757194
H        9.83353994       4.26128793       1.23519473       0.06386757      -0.03976832       0.46411376
H       11.21889917       2.92068300       4.54480416      -0.57047893      -0.07349958      -0.37200093