896
Lattice="22.104355549187968 0.0 0.0 0.0 22.104355549187968 0.0 0.0 0.0 22.104355549187968" Properties=species:S:1:pos:R:3:momenta:R:3:forces:R:3 mol_liquid.pdb=T energy=-602235.125 free_energy=-602235.125 stress="0.00011576308315852657 0.00206967955455184 0.0002489873149897903 0.00206967955455184 0.0006113501149229705 -0.000544896291103214 0.0002489873149897903 -0.000544896291103214 0.0042985123582184315" pbc="T T T"
C        8.89130425       5.70852196      11.66643046       0.19412117      -0.23273043      -0.61399998      -0.01027255       0.19036058      -1.68482590
C       10.06448525       4.99090353      11.49344481       0.21561060       0.42858482      -0.08438930       0.66613400       0.09104884       1.14879894
C        8.55730243       6.60183850      10.65164790      -0.95729588       0.73673620       0.35776267       1.49506927      -0.67227244      -0.51113290
H        8.18175951       5.48405353      12.45045961      -0.21438539      -0.08165172      -0.08256432       0.27631345       0.20928529       0.20156252
C       10.98031214       5.23269725      10.46439708      -0.51737432       0.24639769       0.39355584      -0.07990342      -0.02564283       0.75069791
H       10.29248013       4.34032027      12.32150042       0.08448407       0.21626545       0.01842005       0.42804116      -0.42796418      -0.22774893
C       10.65495798       6.14433380       9.50781610       0.35863779      -0.09872014       0.01342544      -1.18982649       0.19624870      -1.88955712
H       11.95535654       4.79407282      10.41698810       0.02817034       0.25825969      -0.03198630       0.11309125      -0.52611709       0.29088262
C        9.38982736       6.74118011       9.51626851      -0.18491841      -0.38466321       0.29354233       0.43128222       0.62101495       1.49283218
H       11.21443829       6.33899423       8.57558022       0.11717874       0.14615443       0.04180074       0.16916057      -0.18697983       1.12486708
C        9.17315408       7.70130088       8.42646335      -0.68664009      -0.03359993       0.48495720      -1.23331547       0.09303012      -0.56275618
H        7.70617228       7.18569525      10.76204933      -0.42011861      -0.08691031      -0.13362940      -1.46773541       0.92987251      -0.16934961
O        8.14669731       8.34627721       8.26252321      -0.65403557       0.11622015       0.93329902       1.06591117      -0.38292620       0.06884301
H       10.02866167       7.70846222       7.71238424       0.05863439      -0.01998725       0.18293554      -0.48723602       0.48019728       0.11455052
C        4.40310639      -5.43078576      19.66569870      -0.35258115       0.26342354      -0.12933958       1.07988167       2.54356098       0.92999601
C        3.11044080      -5.00118002      19.38209358      -0.22889939       0.07384129      -0.44405324       0.05392811      -0.09479115       0.87629628
C        4.96091206      -6.57940502      19.14748106       0.10775690       0.76281503      -0.59412387      -1.28808820      -0.02516763      -0.04081416
H        5.08438125      -4.74008137      20.22712846      -0.03921384      -0.17774211      -0.02507320      -0.96727586      -0.92496091      -0.32788634
C        2.29427214      -5.88770998      18.69187288      -1.53026861       0.20802978      -0.34167332      -0.52069545       1.46788907       0.82589328
H        2.66400794      -4.09903369      19.84150595      -0.23791089       0.06533240       0.00333640       0.66911680      -0.48349711      -0.55574083
C        2.75782795      -7.08075677      18.32945537      -1.10409393       0.74008571       0.59023472       1.96809340      -3.26185894      -2.06167507
H        1.27589130      -5.67570718      18.48356321      -0.07774649       0.15765106      -0.03948663      -0.70955455       0.34363836       0.04881499
C        4.16424552      -7.42178954      18.42501096       0.79333843       0.23822739      -0.66636835      -2.27626181      -0.05092170       0.12552717
H        2.05323861      -7.77897379      17.85093830       0.12518155      -0.22675577       0.20427663       0.60244238       0.30555749       0.21386234
C        4.73382333      -8.65921226      17.87097051      -0.74608036      -0.03274867       0.10083078       1.03267705      -0.93433440      -0.88471293
H        5.90301571      -6.94989575      19.39578578       0.05335084       0.23835936      -0.18621753       1.63802898       0.10899955       0.25220296
O        5.94311082      -8.85650818      17.72560270      -0.92887925       0.39877201      -1.12709574      -1.60850191       0.47547051       0.46591035
H        4.04367446      -9.44603458      17.48980374       0.02283244      -0.02878802       0.01767925       0.05146901       0.60977626       0.33623660
C       16.36412375       1.90525657       8.37443282      -0.35976122      -0.25626048      -0.47961300       1.82123017       1.17535520       1.66944456
C       16.91504516       2.60777686       9.46083214       0.01803731       0.21768419       0.94959649       0.49021983       0.71933401      -0.00756282
C       17.25799485       1.17645189       7.63169220       0.56618464       0.13214494       0.12331760      -0.83532280      -2.03597975      -1.62068915
H       15.32891854       1.92670715       8.13834835       0.12616781       0.16517427      -0.17548758      -0.57869756       0.10139684      -0.10969982
C       18.29472093       2.62592252       9.78754475      -0.61531880      -0.75678789       0.49420807      -2.03485250      -0.83398610      -0.19323239
H       16.33926209       3.27620104      10.06868995      -0.28776221       0.06199727       0.26755209      -0.62243235      -0.07159668       0.17076726
C       19.11176296       1.80537570       9.09035219       0.02171955      -0.74542040      -0.08698879       0.51214468      -1.62788057      -2.50409269
H       18.64639493       3.10305364      10.66879224      -0.38791430      -0.31547628       0.00392213       0.17091557       0.69180799       0.37452677
C       18.60841670       1.03292073       7.97711620      -0.53770078       0.04027327      -0.29759274       0.03456122       0.67278242       0.47757781
H       20.17075193       1.74008042       9.28866913       0.27263921      -0.19568049      -0.00937038       0.03567515      -0.03812833       0.14869881
C       19.54876038       0.03483810       7.35310881      -0.01022708      -0.12810471       0.21672307      -1.78979719      -0.17254901       0.50194532
H       16.74003296       0.59329084       6.81089255      -0.06055687      -0.13219056      -0.05431607       1.39761519       0.55070096       0.73995161
O       19.28957538      -0.84548963       6.54608712      -0.85131517      -0.63042026      -0.21046223       0.08639003       1.12435198       0.52090764
H       20.47174530       0.07822777       7.89673323      -0.14809975       0.16892053       0.01096163       1.13318920      -0.09286378      -0.03647606
C       10.64394024      17.57800213       2.44697238       0.53469978       1.74874766      -0.96977559       0.98747587       1.38684177      -1.20254898
C       11.90165049      17.80293888       1.81268378      -0.02727233      -0.10889529      -0.17466789       0.07774653      -1.73660064       0.90656948
C        9.65812577      18.49196500       2.18537262      -0.21938794       0.62526821      -0.11595501      -0.67239976      -0.07213786      -0.66109645
H       10.48215941      16.72424528       3.06378810      -0.20080519      -0.02094821      -0.11293170      -0.04921556      -0.40119740       0.23962632
C       12.13690778      18.86770142       0.99053182      -1.05263651       0.35077115      -0.14688562      -0.13959454       1.23342705      -0.08377595
H       12.64620485      17.01041933       1.98169549       0.10705672       0.16051450      -0.13321842      -0.12270724       0.62537897      -0.24595277
C       11.14749035      19.84742676       0.84652186       0.61045616       0.36593283      -0.24093281       1.07896841       0.50290596      -1.48032200
H       13.04703329      19.10396170       0.48449294      -0.08348244       0.15505505       0.03149745       0.66299021      -0.56590724      -0.01877360
C        9.93570627      19.63999327       1.36900324       0.66284813       0.26555309       0.41212214      -2.50869370      -0.45443323       2.22315741
H       11.24252763      20.75491005       0.21584020      -0.22832346       0.04138735      -0.26142500       0.49851486      -0.70320773       0.51237684
C        8.90961120      20.71254997       1.23677430       0.61870501      -0.08593191       0.07559290      -1.12009549      -2.41217446       0.25542590
H        8.63561667      18.22940334       2.46799720      -0.10804868      -0.12132882      -0.06884905       0.29069442       0.66862506       0.14700137
O        7.76116954      20.57961487       1.61318006       0.36242411      -1.33759473      -0.24215033       0.50863695       0.47155049       0.08492847
H        9.21459159      21.55501286       0.68081782      -0.07277294       0.06778673      -0.06039380       0.49181944       1.55388367      -0.67444432
C       10.32334819      28.76790745      -4.73715181      -0.56603002      -0.32542939      -0.50555126      -2.11734152      -1.84827900      -0.17128214
C       10.22765766      28.48832391      -6.10079668       0.42690562      -0.74794315      -1.05146954      -0.72329974       0.32951725      -0.91772652
C       11.50811544      29.16404432      -4.22270208      -0.08053379       0.08059527       0.27961178       0.44800878       0.23462223       0.28284031
H        9.45258118      28.52492665      -4.04363244      -0.01714298       0.02925463       0.06681706       1.30306435       0.49709755      -1.17531919
C       11.26508457      28.77055452      -7.00961832      -0.46565340       0.47627832      -0.41234287      -0.47399065       0.36815119       0.63584590
H        9.26815975      28.15351148      -6.49570727       0.23963244      -0.19241307       0.13932168       0.27262354      -0.08329313       0.10346506
C       12.40711401      29.31412942      -6.45327688      -0.04385829      -0.48333174       0.53554791       1.85530734      -0.32997733       0.52856362
H       11.14261697      28.72320293      -8.10081512       0.01541149      -0.03826621       0.16602151      -0.00789296      -0.23323405       0.71877813
C       12.57316971      29.42644929      -5.05101139      -0.37019491      -0.31326722       1.01445182       0.70111489       1.59547985      -1.46155655
H       13.28665233      29.60834015      -7.05348427      -0.28142313       0.31485435       0.31325583      -0.79212075      -0.09952305       0.06551912
C       13.72310458      30.27518025      -4.52599790       0.04796363       0.49246119      -0.54572735      -1.62546337      -1.39430916       0.73513484
H       11.55568132      29.30041346      -3.18515109       0.07861006      -0.09352956       0.07843783       0.43867961       0.32940140       1.06805599
O       13.60628185      30.87281088      -3.48336127      -0.30368807      -0.40449077      -0.33636629       0.15526915       0.38508853       0.20152082
H       14.66380970      30.28608643      -5.03795688       0.02062647      -0.00507186       0.25230548       0.57600212       0.11008306      -0.80313820
C       -4.93493753      22.04054666      -7.12642363      -0.69501705       0.69406951       0.64175430      -0.80623931      -0.62775266      -0.86074853
C       -4.74124018      22.71821265      -8.36580760       1.27177313      -0.33861458       0.96265674      -0.53807688       0.03786476       1.21242738
C       -6.20650432      21.38135952      -6.91140748       0.90329169       0.39430752      -0.07447081       1.92048728       3.20323801      -3.05509520
H       -4.07240557      21.99284977      -6.44636255       0.14793324      -0.14064546      -0.09225047      -0.77783227      -0.08132244      -0.17503747
C       -5.77460953      22.85123404      -9.29665918       0.55016217       0.19028673      -0.86631013       1.65516591       1.58692002      -2.31192231
H       -3.81475370      23.24798305      -8.57143383      -0.26187136      -0.01243018       0.00618701      -0.01706196      -0.33088797       0.15710038
C       -6.99503940      22.31255846      -9.11557008       0.14975467       0.31083855       0.27525210       0.98978412      -1.30693436       2.60008907
H       -5.61864933      23.39082678     -10.27975928       0.08150993       0.06517157       0.02534544       0.19015720      -0.55945683       1.36090350
C       -7.15884650      21.60978991      -7.92381970       0.49721490       0.10851299       0.76324710      -1.57188106      -1.80107403       0.83256394
H       -7.74759602      22.30384039      -9.82012483      -0.23261854       0.06258575      -0.33649509      -1.39010286       0.26807523      -1.29959702
C       -8.48676216      20.90015155      -7.74584664      -1.07788256      -0.60988999      -0.15518912       0.29022029       0.99415267      -0.87401152
H       -6.52729340      20.88973997      -6.05890971       0.24561752      -0.09420018      -0.24348295      -0.09578811      -1.00141251       1.51507425
O       -8.77230722      20.25843666      -6.76752278       0.98636655      -0.13115808       0.18142741      -0.34589443       0.01457284       0.02267984
H       -9.20638319      21.05018539      -8.61613026       0.17662248      -0.04877209      -0.21439328       0.52677083      -0.34335825       0.92270905
C       33.49701111       3.09479368      26.00335973      -0.32368113      -2.15934030       0.03359787       0.35242772       0.47510174       0.30525947
C       32.33605375       2.39281645      25.69679616      -0.34105327      -1.24418055       0.58234585      -0.54565400      -0.73725295      -1.11392844
C       34.70530969       2.43951611      26.17499125       0.31087517       0.01468675       0.62315384      -1.03003287      -0.64028358      -0.82619214
H       33.46454348       4.15745749      26.16705725       0.15687634       0.04454181      -0.31895217      -0.13282005       0.05450743      -0.03373062
C       32.37041032       1.02709574      25.44936179       0.00802653      -0.58342743      -0.21667920       2.22825527       0.42070365       1.38667285
H       31.35416076       2.82517201      25.50593231      -0.13904344       0.30779008       0.11714391       0.48435962       0.55277270       0.42515245
C       33.59767043       0.34900617      25.62073750       0.30565068      -0.01531021       0.13170881      -1.43902349      -0.98109883      -1.84702039
H       31.48242529       0.50464952      25.32250309       0.12727415      -0.11706332       0.03962138      -1.39310884      -0.87088287      -0.49648112
C       34.73223520       1.06189456      25.85680648       0.12485043       0.79132509       0.10961457       0.91697085       0.88406539       1.70543265
H       33.68134442      -0.73697642      25.37477227      -0.20563008       0.31836048      -0.25278031      -0.17615657       0.93561840       0.49772516
C       35.96116339       0.33817848      26.20553516      -0.19455005      -0.02049921      -0.45826943      -0.56796682       0.26125491      -0.32618737
H       35.59402101       2.92235235      26.54730975      -0.16739112       0.21561910      -0.15412571       0.03389679       0.15128651      -0.19428250
O       36.89889387       0.89425958      26.70944928       0.40968678      -0.13628490      -0.32468964       0.97243851      -0.37909326       0.21428216
H       35.90640673      -0.74250780      26.00733157       0.25605096      -0.01668907       0.29093198       0.40436274      -0.28223825       0.04418047
C       14.75453045      20.86278661      -0.53642140      -1.12220023      -0.01342393      -0.04436135       0.21197662       1.77551341       0.80556911
C       15.22016798      19.65501478      -1.03520394       0.48782654       0.21048772       0.72489877      -0.57936436       0.47240481      -0.08301767
C       13.72041645      21.61138651      -1.12693576      -0.35035696       0.05296085       0.00619140       0.06422147      -1.40074372      -0.62838531
H       15.21872268      21.33964588       0.32966766       0.00381426      -0.05660777       0.09296062       0.10937837      -0.52985799      -0.26909742
C       14.63781676      19.13434813      -2.17528156      -0.46352757      -0.39150913      -0.46893671       0.85054839      -0.13051797       0.21525840
H       16.04605397      19.12160355      -0.61075713      -0.01503804      -0.26437466      -0.00224943       0.13219431       0.06349319       0.50287068
C       13.68977806      19.84006942      -2.83934635      -0.01967223      -0.33395924       1.07965121      -2.35884047       0.89378893       0.01401056
H       14.99910237      18.20189472      -2.52317608      -0.06782715      -0.20703454      -0.33541456       0.22201194      -0.66172522      -0.60626811
C       13.12781567      21.00288688      -2.24751825      -0.20149428      -0.89661518       0.23740336       0.38550210       0.09860730      -0.96904308
H       13.19663695      19.49762180      -3.75843026       0.09767123      -0.04049738       0.07470375       0.47907710      -0.05961646       0.37194523
C       11.96208927      21.60411991      -2.95777361      -0.03026793       0.02306300      -0.16022323       1.13237882       0.38572812       0.34555435
H       13.41831091      22.61671835      -0.79642218      -0.14982961       0.21296499      -0.23384242       0.06840283      -0.83066964      -0.00092215
O       11.30733511      22.49373989      -2.47565757      -0.33793978       0.27522286      -0.63626674      -0.49375603       0.26310152       0.07234390
H       11.78499325      21.24933715      -3.98076650       0.23375085       0.09118378      -0.00349006      -0.19268480      -0.24847072      -0.06486004
C       17.54993596      15.36106946     -13.06329211      -0.10151519       0.07424482       0.34996237      -0.36048949       0.79823649      -0.38949901
C       18.27574622      14.32891549     -12.55932001       0.36454239      -0.39930896       0.65276822       1.05562723      -1.13510489      -0.30281264
C       17.08224355      16.36492955     -12.22496663      -0.47879167       0.34748811      -0.20413366       0.30793202      -1.19409359      -0.08703028
H       17.35004868      15.42287158     -14.12063971       0.00929902       0.02319996       0.09101983       0.10226264       0.05509052      -0.11776285
C       18.44441458      14.20553773     -11.17702641      -0.02202892      -0.17888887      -1.45137143       1.23549080      -0.10892726      -0.15752065
H       18.78539351      13.63877185     -13.27192115       0.22915104       0.01075937      -0.13122643      -0.69615966       0.39262062       0.87930596
C       17.95912793      15.17919958     -10.30605086       0.45578465      -0.24900124      -0.64971484      -0.94434446      -0.02412501      -3.09500551
H       19.11668951      13.38253025     -10.84956934       0.04949703      -0.07340464      -0.25038867      -0.90568876       0.70290375       0.14522909
C       17.23941856      16.29630336     -10.86909877       0.48092657      -0.71917188       0.55694058       0.84982634      -1.19957018       2.12842155
H       18.02200381      14.90715877      -9.31091887      -0.05472989       0.14097944       0.22527223       0.09809077       0.38357845       2.12830853
C       16.72926966      17.32175397      -9.91383835       0.03183507       0.42378121       0.83165190       0.44558367       1.07666028       0.30630106
H       16.59298604      17.16475708     -12.65726628       0.06072231      -0.22247975      -0.15611958      -1.01272118       1.58001447      -0.60341483
O       15.99721237      18.26614818     -10.19945694      -0.73095068      -0.75586690      -0.41073679       0.78263956      -1.37309456       0.35629535
H       17.19782775      17.23971049      -8.87074287       0.12204959      -0.05343200       0.14477131      -0.79116458      -0.03340431      -1.05373132
C        7.94794366       2.76228647      11.95191382       0.23829934       0.50575805      -1.09269782      -0.17275706      -0.88373542      -1.84723985
C        8.32302463       2.56372333      13.25940930      -0.68233802      -0.41068083       1.41509734       1.37850595       0.10545900       0.79381472
C        6.61972771       2.74227070      11.57018042       0.05024264       0.26986557       0.43030006       0.10726088       0.89969766       0.82869351
H        8.64358301       2.86614637      11.11931940      -0.02760786      -0.26728026      -0.01253438       0.27700546      -0.23973970       0.58504772
C        7.41552408       2.54885162      14.29903757       0.21459041      -0.40028487       0.08308528      -1.28128266       0.85911274       0.45280167
H        9.38301777       2.45657410      13.51227688       0.06122507      -0.09953792       0.01422813      -0.41239485       0.15633102      -0.19450347
C        6.05215501       2.71913543      13.97118507      -1.48448500      -0.01642803       0.93585109       0.25947821      -0.99211121      -0.40014672
H        7.74281664       2.57295712      15.35311919       0.04765250      -0.06559647      -0.02691936      -0.18464765      -0.29469699      -0.90973204
C        5.67883964       2.75226725      12.60905509      -0.34118017      -0.95595953       1.04305471       0.52228343       0.35038939       0.02025867
H        5.26144018       2.65380421      14.73712529      -0.06366034      -0.20719635      -0.01056540       0.66088176       0.33872482      -0.50209844
C        4.27551343       2.87887975      12.25402931       0.71291722      -0.78929079       0.10368737       0.07533666      -1.06944585       0.11607178
H        6.33284794       2.89760408      10.52608190       0.00546428      -0.00659336      -0.13070541      -0.10234886      -0.29208961       0.72094816
O        3.83050442       2.82982872      11.13131944      -0.38156639       0.58179459      -0.23623317      -0.10608085       0.18560672       0.09156150
H        3.67038553       2.85396162      13.15035181      -0.11207369       0.10867010       0.16617046      -1.05796647       0.37690946       0.32194185
C       11.11838340      16.31744202      12.19379910       0.37000113       0.33286458      -0.33887241      -0.03111619      -1.66481471      -0.73414296
C       10.62598832      15.00005241      11.91286162       0.12923467      -0.02370762       0.19140690       0.15049013       0.31430039       3.00987506
C       11.06093056      16.80491193      13.48103000      -1.31571546       0.25079220      -0.68695811      -1.67195153      -1.61095214      -0.13264963
H       11.63139341      16.88407477      11.41492971       0.15107926      -0.20155445       0.02323299      -0.28102478      -0.25666520       0.12047461
C       10.08033373      14.19050065      12.98111592       0.08611083      -0.76830311       0.58808429      -0.72251505      -0.09260733      -2.35054255
H       10.77847193      14.52078837      10.99038230       0.19602937       0.27853104      -0.29828147       0.05883579      -0.14951834      -1.09680295
C        9.85869584      14.72761968      14.20761476      -0.34167461       1.01882326      -0.47283012       0.88968140       1.44799709       1.18232918
H        9.61884236      13.19267509      12.83161265      -0.00432414      -0.20976020      -0.01069360       0.86855924       0.65392196      -0.44023380
C       10.35461561      16.01997882      14.43647050       0.32523429       1.00578442      -0.90253365       0.61133987       1.63340998      -0.04382458
H        9.42581653      14.17774813      15.04585770      -0.16379873       0.02857369       0.18490638      -0.02708699       0.12620950      -0.40093377
C       10.20968875      16.68801190      15.74212192       0.44009647       0.04642178       0.22932245       1.10786653      -0.68789709      -0.06928314
H       11.43115982      17.76910318      13.74324652       0.07153883      -0.11558232      -0.08893842       0.17652234       0.38697863       0.27739161
O       10.64435794      17.77540802      16.03180117       0.36368283       0.56394766      -0.23067467      -0.12599438       0.57463640      -0.14022414
H        9.85248804      16.04920314      16.51785933       0.15902876       0.21983805       0.04620189      -0.89849907      -0.59213018       0.95813191
C       18.45362552     -10.71566069      40.95520566      -0.07339499       0.42087305      -0.58444312      -0.25399819      -0.05708920       0.30048195
C       17.30056713     -11.07424627      41.65152818      -0.02986496       1.35854031      -0.47459312      -0.85416389       0.13123345      -0.17407656
C       18.42950975     -10.33434629      39.61800491      -1.05007322       0.21646672       0.11146082      -0.22247717       0.67235911      -0.70169127
H       19.31270865     -10.74147811      41.58349579      -0.06894517       0.09393522       0.13408011       0.94299841       0.08019932      -0.20653975
C       16.06393744     -10.98532582      41.02329845      -0.39730883       0.41511029       0.18288326      -0.99375993      -0.11580127      -0.48113209
H       17.34194973     -11.41538658      42.67883630       0.00015617       0.29768698      -0.06243187       0.20951536       0.14270431      -0.16860496
C       16.00000786     -10.61546217      39.68865502      -0.55587249      -0.15653955      -0.04660206       0.56248093      -0.06257702      -0.17953992
H       15.05685521     -11.20477681      41.43338939      -0.19337829       0.00085143      -0.08273119       1.22639930      -0.10422782       0.35232875
C       17.17875600     -10.27864223      38.97505706       0.13347302      -0.53131915       0.40951218      -0.89114308      -0.45056641       0.95635325
H       15.00129455     -10.66878351      39.25134626       0.19083660      -0.13108190      -0.15668491       0.55152404       0.35270172      -0.38193920
C       17.02241863      -9.87090328      37.58557546       0.13797581      -0.40733746      -0.30445976       1.94386733       0.44967088      -1.82738113
H       19.28702849      -9.99900514      38.98463634       0.09766294       0.03032338      -0.16354799      -0.54903471      -0.49089330       1.03435326
O       17.94093641      -9.49260142      36.84551200      -0.07322821      -0.23835880       1.11328434      -0.79325736      -0.47817773       1.16170359
H       16.05133266      -9.93648087      37.13115455      -0.03735803       0.04788029      -0.38089158      -0.86447847      -0.04189844       0.17397389
C        6.69749371      18.67417484      18.63269861       0.32125174      -1.02758743      -0.24178263      -0.95246357       2.25183415      -0.28312624
C        6.68092976      19.98992641      19.13331081       0.50983967      -0.13786911       0.65726170      -1.00828969      -1.24925303       0.58217025
C        7.89987953      18.06146047      18.58374142       0.16639857       0.28405742       0.32269470       0.46926507      -2.15714955       0.23086888
H        5.76727194      18.26165520      18.27782701       0.06422161       0.14376371      -0.04873021       0.24138130      -0.19815217      -0.23756781
C        7.78173324      20.58611232      19.65450947       0.14654537       0.58459773      -0.49142687       0.94529486       0.33344376       0.11693197
H        5.78901675      20.51024443      19.38429091      -0.22905387       0.15168610       0.31579140      -0.99511957       0.18054265      -0.60759008
C        8.98503069      19.92625784      19.67092556      -0.42497187       0.34284634       0.86186607      -0.65198928      -2.34199262      -0.23018911
H        7.65652999      21.53861241      20.11144750       0.09286225       0.06020987      -0.35173602       0.16663958       0.68946362       0.13647842
C        9.00669168      18.57091402      19.23374151       0.02733037       0.27656940      -0.56925040       0.37727624       2.25453758      -0.37269950
H        9.84098786      20.33410726      20.10976042       0.10272168      -0.03674395      -0.33842399       1.10675883       0.59231198       0.54856539
C       10.24367195      17.81947235      19.28670240      -0.52146038       0.30718312      -0.30975866       0.89425570      -1.54649329      -0.72439492
H        8.01577300      17.06746848      18.16607796      -0.01992373      -0.15017198      -0.09450746      -0.15402354       0.03077700      -0.00655258
O       10.37432778      16.63679159      18.95441665      -0.21416452      -0.18072051       0.42395953      -0.25290215       1.49952435       0.55594301
H       11.13736249      18.38376586      19.60301680      -0.27853018       0.05692086      -0.12530263      -0.09928054      -0.04129463       0.18951555
C       -4.49452006      25.47604678       4.21569968       0.01687850      -0.14639875      -0.05623425       1.43026781      -0.86069250      -0.34914571
C       -3.98210776      25.04853754       2.97544965       0.09201991      -0.13006135      -0.65645948      -0.29811925       0.07382513      -0.07532990
C       -3.86497562      26.47733322       4.92161402       0.37322472      -0.53213609       0.49478314      -0.70271468       1.03664386      -0.48573923
H       -5.24649719      24.94661275       4.72483145       0.04063936       0.00765086       0.09009340      -0.99671626      -0.69910216       0.15159550
C       -2.92753298      25.77409295       2.37912494      -0.64736374      -0.45418561       0.21126775      -1.55348277       0.02071491       0.14132807
H       -4.48456516      24.21169392       2.43334236       0.00946940       0.18736982       0.10912747       0.77235287       0.67713499       0.61533982
C       -2.59907398      26.99832164       2.91746740       0.02648572      -0.19803579      -0.48877319       0.73513663       0.66634810       1.37622619