1088
Lattice="22.739880885391596 0.0 0.0 0.0 22.739880885391596 0.0 0.0 0.0 22.739880885391596" Properties=species:S:1:pos:R:3:momenta:R:3:forces:R:3 mol_liquid.pdb=T energy=-670757.3125 free_energy=-670757.3125 stress="0.00026184413582086563 -8.416127820964903e-05 0.0011708290548995137 -8.416127820964903e-05 0.00016739132115617394 -0.0011036057258024812 0.0011708290548995137 -0.0011036057258024812 0.0031548840925097466" pbc="T T T"
C        4.59813610      -8.56661238       9.05143598       0.29505176       0.84900260       0.41013732       0.10950211       1.63654947       0.34698778
C        5.39505744      -9.78291258       8.77320174      -0.04945942       0.68714848       0.34762457       0.13810340       0.56008202      -0.92857420
C        5.15903647      -7.29614449       9.22710212      -0.48235631       0.29108311       0.36270928       0.49365515      -0.37925360       0.95497262
C        3.23466805      -8.64868246       9.14114548       0.22871697       0.27373493      -0.38427918      -1.11647511      -1.99178576      -0.10286228
C        6.86810330      -9.63744995       8.57791873      -0.88882789      -0.72671413       0.84659283       0.04616682      -2.21376324       0.94891274
O        4.83436328     -10.83027368       8.60884040      -0.69199727      -0.17345560      -0.26619514      -0.59517378      -1.28436995       0.27968171
H        7.37081896     -10.61252578       8.43547327       0.18809422       0.11228644       0.08285568      -0.75942260       0.35299936      -0.51444304
H        7.08215967      -8.95243033       7.81090976      -0.27945799       0.24957022       0.36785495       0.53476560       1.02014470      -0.69551563
H        7.26365232      -9.38683280       9.53308588      -0.08530247      -0.07594664      -0.42383953       0.56740350       1.10415220       0.71347654
C        4.37607381      -6.19864231       9.61963162      -0.11855762      -0.31655175      -0.13533062      -1.79825902      -2.09071922      -1.24239182
H        6.24825947      -7.29057655       9.19234069      -0.00251299      -0.02331991      -0.06051785      -0.31576005       0.73521245      -0.12809193
C        2.96574498      -6.33909203       9.66225102       0.71383474      -0.16949431       0.67501793       0.98549610      -1.38721120       0.30359435
H        4.76484366      -5.25003396       9.69851098       0.19499488       0.07599247      -0.02160342       1.11019039       1.85412705       0.42802036
C        2.40922346      -7.60113551       9.45095499       1.08570164       0.34551724       0.02884182      -0.71811640       1.06368601      -0.35794392
H        2.26372973      -5.58674711       9.93844442      -0.04126202       0.09643230      -0.14930470       0.09762696       0.87746972       0.00543738
H        1.30071297      -7.68182123       9.42015729      -0.18897326      -0.02533663      -0.02561620       1.15248418      -0.32794130       0.24026063
H        2.81300692      -9.64077994       8.98672598      -0.14502906       0.09814222      -0.19318345      -0.02208799       0.28774744      -0.00840912
C       26.53304220      13.38410181      -2.04310520      -0.33469195       0.08972679       0.30684830      -0.43906039       1.24218988       1.64716077
C       25.45680834      14.30172878      -1.44880772      -0.30684725       0.15669447      -0.89808578      -1.08522248      -0.69796848      -0.41946933
C       27.81222850      13.42908506      -1.50353482       0.70169638       0.74312439      -1.51422700       0.45441914      -0.66146910      -1.17837453
C       26.21207165      12.45735475      -2.99062968      -0.76655982       0.25765795      -0.00755699      -0.76260155      -0.25698850      -1.13324571
C       24.11639234      14.45950322      -2.26986986      -0.54912236      -0.65005799       0.14796357       2.43314981       1.78964555       0.09677362
O       25.53332607      14.79256505      -0.33271387       1.04684572      -0.23417804      -0.46777622       0.39649343      -0.26309162      -1.26291192
H       23.53453831      13.60250237      -2.22191254       0.20897486       0.15642592       0.02735956      -1.04310179      -1.74045360       0.24237353
H       23.60232053      15.27508432      -1.80199110      -0.01366714       0.19061173       0.06874194      -0.44414037       0.32414076       0.18693128
H       24.26635170      14.70396089      -3.33040744       0.12239530       0.20482800      -0.20402192       0.19870925      -0.09316947       0.35708916
C       28.72342554      12.52896745      -2.01481826      -1.05934528       0.59329516       0.40250994       1.61702418      -0.11986844      -0.01526191
H       28.12412301      14.21919824      -0.86995012      -0.25743718       0.22356696      -0.11955842       0.03462139       0.36203837       0.82209516
C       28.40028615      11.61289681      -3.04303069       0.23782343       0.35057330       0.34250244       1.01874423       0.44089848       0.11734702
H       29.80011786      12.57100880      -1.67651898       0.01265096      -0.16569990       0.14879806      -1.40760016      -0.11038139      -0.39382884
C       27.14107672      11.57565457      -3.58831813      -0.28492627       0.53160726       0.76827168      -1.42734194       0.14638010       1.13914680
H       29.23519742      11.05559059      -3.46005005       0.12377711      -0.25914848      -0.16587204      -0.30294603      -0.24264839       0.12286988
H       26.76985490      10.83040996      -4.30270100      -0.12997952       0.12939528       0.09830671       0.55375457       0.58080512       0.16044083
H       25.17082425      12.53068980      -3.28076768       0.39412126      -0.12661297       0.43088726       0.19691855      -0.60852867      -0.46415633
C       14.89756744      12.30194087      23.61055004       0.35966027       0.24583457       0.12652605      -1.78364468       0.56658310      -0.06479293
C       13.39005985      12.36540855      23.87654941      -0.67045875      -0.04365117      -0.39627828       0.40507904      -0.08283453      -0.55128300
C       15.69725859      11.39838033      24.27244259       0.90966099       0.14303915      -0.35660125      -0.02919054       0.54372996       0.09817734
C       15.41067011      13.18377672      22.68041272      -0.05294642       0.48037842      -0.15082135       0.26516721       1.50788808      -1.57955933
C       12.89610188      11.44635620      24.96268523       0.86764589      -0.58923390       0.19659152      -0.21677800       1.01100028       1.12079287
O       12.66539263      13.09807507      23.21947809       0.23375819      -0.02771684       0.19207755       0.36347336      -0.39066964       0.65106696
H       11.79638646      11.46532811      25.05541759      -0.04699122       0.22695156       0.19353436       0.66288781      -0.13222936      -0.33432987
H       13.30605963      10.43272042      24.87889826      -0.22373025      -0.18035162       0.07480024      -0.34920371       0.39726028       0.10155454
H       13.28149730      11.92616357      25.91629664      -0.10639262      -0.19229139      -0.07195814      -0.30078444      -0.79307771      -0.84002382
C       17.03098602      11.38158717      23.95965198       0.47171684      -0.34466695      -0.55909070       1.26236141      -0.93150187       2.11387157
H       15.28451321      10.91097765      25.11866763      -0.09580700       0.03624592       0.19237262      -0.07181922      -0.91225195       0.32522532
C       17.51648015      12.27372012      23.05021799       0.12646913      -0.88335021      -0.15347560       1.44713175      -0.37423360      -1.70759368
H       17.75709003      10.78132330      24.58792403       0.09452375      -0.13034349      -0.21721104      -1.08833039       0.73009562      -1.18245208
C       16.75057079      13.13484498      22.27785916       0.28828370       0.92355841       0.50949986      -0.25453693      -0.18492652       1.46610141
H       18.57000537      12.21700797      22.82156994       0.28820736      -0.02171388       0.05412747       0.18200240       0.11081705       0.09856716
H       17.30999036      13.74883604      21.56967369       0.17722595       0.13293797      -0.19770714      -0.78766662       0.08273272       0.14168175
H       14.76862042      13.99481603      22.29691472      -0.09530696       0.32055482       0.20098255       0.10302781      -0.89395469       0.00504806
C       21.73500242      -1.05356873      10.06217203       0.52100281      -0.16106426      -1.20609532      -1.09058261      -0.23621982      -2.18359375
C       22.11563387      -2.15200966       9.00755420      -0.52161283       0.66251349      -0.85284558      -1.61948550       0.12344311      -0.02840277
C       20.74311592      -0.07067713       9.67324140       0.01525673      -0.67516005       0.12959097       1.41215098      -0.80630136       2.11089826
C       22.23770553      -1.05700098      11.34950288      -0.78088641       0.59476081      -0.98575351      -0.55229920       0.57165277      -0.68445498
C       23.33826027      -2.97552085       9.36374557       0.74599235      -0.67062161       0.10368936       0.74346054       0.70854902      -0.72952259
O       21.42926614      -2.33819408       7.98108021       1.12700544      -0.17426601       0.28648231       1.64245558       0.44766730       2.21435785
H       23.52400869      -3.78258923       8.59799602       0.18634209       0.01372173       0.06413863      -0.27212715       0.65141481       1.28184962
H       24.15278666      -2.22283409       9.27484841       0.11024945       0.20973548      -0.14269141      -0.15203947      -0.39971161      -0.28215590
H       23.43922629      -3.19692711      10.45037212       0.04857411      -0.05973678       0.22410927      -0.56886393      -0.52400255      -1.02433968
C       20.29458819       0.84915251      10.64653660      -0.19197844       0.39526626       0.31813539       0.34214482      -0.28098178      -0.41366869
H       20.43075069      -0.09605284       8.64562922       0.32868845       0.22541983       0.09982717      -0.32310772       0.19615562      -0.04598330
C       20.79691400       0.86860287      11.97096080      -0.13251121      -0.24975265      -0.34810718       0.34657526      -1.11536288      -2.12773848
H       19.59524696       1.61198449      10.35248094      -0.20745876      -0.05792464      -0.03750804      -0.27896774       0.02736761      -0.08811633
C       21.76266828      -0.09721046      12.22192760      -0.41784646      -0.62272324      -0.39070911       0.17536125       0.28523642       1.35142565
H       20.50248801       1.64222418      12.66527504      -0.31167743      -0.07443373      -0.10807291       0.05362970      -0.19614711       0.11466128
H       22.24174196      -0.17554394      13.16626527       0.07567370      -0.09038856      -0.19630668       0.06467925       0.30764118       0.82703507
H       22.99680166      -1.72603306      11.72323810       0.12023733      -0.01669515      -0.15871476      -0.27313924      -0.01718820      -0.21954495
C       17.25194903       6.14131552      18.02874417      -0.64850291      -0.75260154       0.27304555       0.35365602      -0.31244719       0.41784129
C       17.74314378       4.76666067      17.71747790       0.37964993       0.10509354      -0.12045881      -0.45455164       0.33760333      -0.19398859
C       16.43459699       6.77254262      17.14666639      -0.43647677       0.40093388       0.31434757      -1.20342159       0.42364007      -1.21713698
C       17.61347243       6.79784610      19.21325767       0.34846739       0.56446446       0.10641086       0.61708856      -1.61442876      -0.35623425
C       17.19746598       4.05758198      16.51451229      -0.22533292       0.21207230       0.27517625      -1.61347854      -2.19891429      -0.24242464
O       18.55211869       4.22407835      18.43036668       0.53835471      -0.41325321      -0.12106869       0.56239283      -0.23710388       0.45424342
H       17.41515145       2.97887670      16.59992846       0.13363711      -0.10238530      -0.16243955       0.57293701       0.48860872       0.11411642
H       16.08241339       3.97973314      16.45648298      -0.03599291      -0.22124144      -0.11163092       0.75005507       0.86569512       0.29314798
H       17.50579061       4.35276361      15.52253309      -0.06092530      -0.09816405       0.10928007       0.28363806       0.62411916       0.08154945
C       15.99289909       8.09149853      17.29270513       0.31762770      -0.14957719       0.15087088       0.05795918      -0.78092533      -0.45441252
H       16.01372367       6.20244081      16.34754963      -0.13648936       0.03470050       0.03233306       0.14321816      -0.13793930      -0.57653129
C       16.36024093       8.70576592      18.44369191      -0.01155389      -0.31630075      -0.07015563       0.51690942       0.09409003       1.35235965
H       15.36956666       8.56314071      16.52838975      -0.09946382      -0.17799526      -0.09088354       0.29147732      -0.21343382       0.46798348
C       17.15150831       8.05444279      19.41346885       0.22922612      -0.09154568      -0.27699543      -0.23532060       0.52699494      -0.00948602
H       16.01531103       9.67588506      18.69201501       0.12595070       0.03042674       0.13968227      -0.24593525       0.83191669      -0.01726955
H       17.41563695       8.51538960      20.34100899      -0.06980725       0.21270345      -0.02481872      -0.07023196       0.50475103       0.25882936
H       18.22705463       6.22640139      19.91909642      -0.23242589       0.03850474       0.08105825      -0.21522574       0.61908579      -0.12926386
C       24.61818792      13.21327365       6.03371878      -0.77925322      -0.29764461       1.41824688      -1.03853881      -0.11705416       0.06368673
C       25.86895033      13.97706880       5.87042547      -0.47289892       0.24051528       0.45425106       0.07918835       1.14750862       0.73444945
C       24.68371070      11.82908566       5.91906446       0.03397937       0.30379474       0.80837000       0.70762634      -0.71919256       0.70361900
C       23.40388502      13.87031322       6.26840383      -0.44101342      -0.09060212      -0.03936228      -1.19268918      -1.11248446      -1.50182295
C       25.73710144      15.44036038       5.75838382       0.74016762      -0.77061742      -0.64409871      -1.36604619       1.73404956       0.15683660
O       26.97838587      13.49909405       5.93192175      -0.20820630       0.69459127      -1.05190881       0.55990869      -1.13646376      -0.40764642
H       26.71730175      15.94805064       5.81607846       0.01953800       0.17033094      -0.04551577      -0.72195756      -0.30484015      -0.11744271
H       25.14943907      15.72909806       4.86092111      -0.31250241      -0.15899531      -0.12044203       0.82647431      -0.25521949       0.17889121
H       25.01442063      15.82605527       6.53160908       0.27722486      -0.16568794      -0.04897851       1.28788030      -0.29284492      -0.27874061
C       23.53410660      11.05978340       6.11038448      -0.70647715       0.98813458      -0.61691260       0.01415671       0.77929658      -0.76964432
H       25.74313724      11.47763325       5.79071953      -0.04229964      -0.31269660       0.35328354      -1.52013850      -0.23311767       0.04015655
C       22.27560306      11.72734186       6.23172095      -0.27423884      -0.06069281       0.81278300       1.03315735      -1.57059050       0.01325925
H       23.57131393       9.96950342       6.03514195       0.32771166      -0.01397920       0.01932387      -0.08642985       0.46391091       0.14137816
C       22.16715607      13.09105377       6.27575001       0.61541647       0.21701992       0.08521132       1.99503279       1.59391189       0.25670820
H       21.41800077      11.06665741       6.26884470      -0.26402614      -0.20047755      -0.06777584      -0.15151194       0.28694367       0.03225153
H       21.19290891      13.57191309       6.31613997       0.08291137      -0.07230881      -0.19828806       0.28313956      -0.01319347       0.12026744
H       23.44628895      14.95222441       6.14353084      -0.01287210       0.03741439      -0.16346602      -0.66677773      -0.45901385       0.61517376
C      -16.17118857      -0.36096021       5.91178409       0.53541800       0.04996660       0.08263727       0.10713324      -0.33926263       0.24845779
C      -15.76847410      -1.77466124       6.25766324      -0.52862509      -0.36781221      -0.33893461      -0.69429332       0.39310241      -0.34173316
C      -15.97806787       0.12319595       4.60702476       0.82474474      -0.36158163       0.73147904       0.72423530      -2.37077570       0.28397006
C      -16.66799598       0.50228180       6.85940013      -0.30201955      -0.05776770       0.75082064       0.11477684      -0.17258623       1.95433533
C      -15.84343761      -2.27190353       7.67678124      -0.70369552       0.13528934       0.41089535      -0.78800565      -0.93821311      -0.80537707
O      -15.38079339      -2.51459744       5.37573517       0.55496602       1.01313916       0.01485300       0.16624051      -0.13393912      -0.23725878
H      -15.82225550      -3.38824212       7.61184679       0.14101058       0.11880554      -0.11707069      -0.27579701       1.03321791       0.36803347
H      -14.96990494      -1.96535270       8.18515632       0.28321409       0.23789117      -0.04373629       0.99221289       0.34511507       0.65843660
H      -16.68811606      -1.84935338       8.22798632       0.07248679      -0.01809496      -0.02010029       0.11269012      -0.47619849      -0.24022573
C      -16.03747053       1.41959010       4.27843885       1.18190043      -0.55074332      -0.02828585      -0.45262077       2.21687365       1.22731662
H      -15.66396076      -0.60661117       3.88023607       0.20533915       0.14171506       0.19232537       0.04946008      -0.04648426      -0.18284464
C      -16.41205964       2.32464720       5.32657335       0.51036797       0.25674468      -0.60521868       0.52640158      -1.19021833      -0.65218872
H      -15.72772884       1.71529694       3.29104847       0.04781549      -0.38165354       0.30701993      -0.23969583       0.35347861      -0.07458632
C      -16.76193557       1.85348646       6.58300435       0.65766513      -0.16937703      -0.96873879       0.05758366      -0.50578052      -1.87084794
H      -16.35383239       3.37599000       5.21283228      -0.07089459      -0.13945688       0.19274576      -0.15846594       0.52802259      -0.37009186
H      -17.13692693       2.55760788       7.25276479       0.21874823      -0.05466045       0.09471906      -0.34668392       0.63636690       1.20766151
H      -16.90126983       0.17643365       7.90283001       0.23414119      -0.10774755       0.08610151       0.31465793       0.24238345      -1.16722035
C       12.29600159      12.82520752       7.11109918      -0.42201842       0.57246211       0.31606974       1.73453629      -0.72978538      -0.60907441
C       11.56899864      11.79302915       7.91784481       0.09737829      -0.03166464       0.62896369       0.25958213      -2.46002817       0.50863558
C       13.34485845      12.31636240       6.29361386      -0.22759809       0.03996442       0.16005807      -0.93064964      -1.39756095       1.23560572
C       12.15007573      14.20440025       7.14542754      -0.88932232       0.49108752      -0.04704433       0.71817946      -0.38517562      -1.40790844
C       10.30985231      12.23547944       8.56641610      -0.56056119      -0.06479957       0.02825019      -0.58499783       3.05322886       0.53486550
O       11.99946700      10.62018700       8.07894209       0.61935902       0.47178192      -0.70504716      -0.85784018       3.06157827      -0.63247812
H       10.57667495      13.13696388       9.22237213       0.18534376      -0.21294864      -0.04338938      -0.13151504      -1.28853798      -0.41814259
H        9.55864681      12.75390016       7.93243732       0.11013545       0.15749640      -0.00052497       0.78461409      -0.55646974      -0.35217682
H        9.74089851      11.54819884       9.14244137       0.07430934      -0.08431553      -0.02836054       0.16662517      -0.89943039       0.41693127
C       14.15721858      13.05745366       5.51651825      -0.16672551      -1.14940114       0.52161409       0.33149329       0.02148247      -1.04227424
H       13.54420031      11.25889835       6.31381925      -0.14999324      -0.16002280      -0.13288003      -0.36950812      -0.27221635       0.12372252
C       13.93386045      14.41848424       5.51763244      -0.03218215      -0.33181481      -0.14178239      -0.52256459       0.66633725      -0.13595389
H       14.86689066      12.53774830       4.84829363       0.35851374      -0.14001522      -0.04653717      -0.28159827       0.76738423       0.66871595
C       12.96165217      15.00752821       6.29137537       0.32305766      -0.48722968       0.02682715      -0.92952627      -2.53119206       1.57767057
H       14.42406331      15.04389984       4.83945742       0.14625976       0.05111225       0.01967767       1.05108619       0.82634521      -0.84300822
H       12.74398434      16.02223902       6.32911917       0.17359534       0.11575539      -0.29653951       0.02295654       1.72497284      -0.32524350
H       11.39438204      14.65765584       7.72327783      -0.22681711      -0.00220301       0.03412362      -0.65122890       0.52574503       0.58804011
C        2.51359948      23.70341639      11.10537162       0.27410627       0.31764890       0.37262402       1.17388105      -0.65857065       1.60312986
C        1.62324537      24.77017018      11.46921315       0.77402294       0.03697270       0.37701811      -0.61818409       0.77340794       1.58238924
C        3.42686876      23.29700341      12.13155377       0.28314376      -0.22943964       0.99062753       0.51775658      -1.79806459      -3.92260289
C        2.54525973      23.20464786       9.82563505       0.77599815      -0.89409608       0.38533007       2.49080443      -1.23734355      -0.06354593
C        0.59603996      25.24285955      10.56957813       0.20742612       0.79456719      -0.77539046      -1.19743466       1.81395042      -0.18061261
O        1.77301905      25.36329322      12.52862612       0.10098271       1.01780618       0.17841644       0.13604006      -0.09144614       0.18751022
H       -0.27202597      25.62876550      11.10549609      -0.16634981      -0.20435780       0.01962900       0.39068723      -0.09099014       0.21259281
H        1.02143968      26.10739411      10.08143209       0.06773818       0.10554494      -0.03621345       0.17821169       0.50892264      -0.20468175
H        0.23672885      24.66595027       9.77964313       0.01601150      -0.14813667       0.04077272      -0.22139408      -1.45363486      -0.91527343
C        4.38859116      22.35922693      11.71219376      -0.27741318       0.85260376       0.86737244       0.04233754       0.95490074       1.92117119
H        3.40958664      23.67207575      13.09980898       0.08745180       0.09398104      -0.02468337      -0.24737000       0.64523888       1.35320139
C        4.50443739      21.95158267      10.40366027       0.69681856      -0.73673060       0.39539649      -0.18190572       0.22691001      -0.89050555
H        5.12695567      22.02568480      12.44683982      -0.06488255       0.06975487       0.20027281      -0.30748415      -0.09891865      -0.31744090
C        3.63139017      22.38864203       9.42849324      -0.31723371      -0.74709103       0.31036916      -0.94936764      -0.00347043      -0.32946387
H        5.30004139      21.32676123      10.08086320       0.39160382      -0.05088030       0.20746721       0.62267876      -0.52034503       0.21914347
H        3.77626618      22.07490632       8.36554783       0.09635601      -0.18944443       0.07655040      -0.39470181       0.29629654       1.11992884
H        1.85381905      23.45498313       9.09651373      -0.11014121      -0.25207764      -0.20355381      -1.28152752       0.66393185      -0.90532780
C       16.36903072      18.27193685       7.21875044      -0.40820758      -0.46813808      -0.13800164       0.10892877       0.13854796       0.70990974
C       16.68900587      17.70395501       8.63482843       0.11512737      -0.33649087       0.17525575      -0.01930520       2.25362110      -1.74569464
C       15.23422353      17.72585253       6.54206536      -0.22117079       0.35821773       1.01234195       1.88561440      -0.83830202       1.29779828
C       17.04812564      19.38589726       6.68300691      -1.06857831       0.05725557      -0.57758570       0.04702285      -0.65157425       1.19236636
C       17.70820182      18.44594815       9.46323044       0.38912230      -0.27096789       0.27550330      -0.61075819      -0.06697181       0.80094951
O       15.98180630      16.85172363       9.08364501      -0.92041154      -0.25348602       1.40195914      -0.33958280      -1.19017220       0.45341420
H       17.42883088      19.51247120       9.55922138      -0.07245072       0.03037727      -0.01090635       0.06598691      -0.64115793      -0.19761625
H       17.61153605      18.00127148      10.45964806       0.00272136      -0.13205759       0.01659541       0.28302065       0.21352275      -0.26166654
H       18.72421634      18.38524953       9.11240032      -0.00569712       0.20604900       0.01441065       0.30118230      -0.14695570      -0.30316061
C       14.95472875      18.22939398       5.31008385      -0.97900902       1.30417913       0.10586529      -1.42344952       1.68122363      -1.73980975
H       14.77674491      16.82499749       7.03781955       0.12112224      -0.02611947       0.06332352       0.24826759       1.27276564      -0.85139400
C       15.58884550      19.41960239       4.78574397       0.83736046       0.12505006       0.08126101      -0.47510248      -2.38137913       1.33681762
H       14.08265007      17.87004238       4.74734800       0.21961918      -0.17681551      -0.27544050       0.49423975      -0.08440594       0.22312157
C       16.61890417      19.94252347       5.49375496       0.28914728      -0.34659373      -0.34899685       1.25627422       1.27748597      -0.12289846
H       15.33711389      19.85107756       3.86085925      -0.18605876       0.23755576      -0.21846993      -0.55950767       0.19668265      -0.88185251
H       17.16596680      20.82963135       5.13821645       0.09796723       0.19190719       0.02273883      -0.46736133      -0.46857893       0.05387427
H       17.89085483      19.89644569       7.18627113       0.02237066      -0.00605356       0.01882334      -0.62122405      -0.73036987      -0.12281384
C       18.50170871      10.25428372       4.15288282      -0.16029782       0.57034700       0.20668272      -1.49092340       0.71556717       0.80027854
C       17.23836856      10.59748475       4.99182962       0.37501813      -0.28708155       0.40763393       0.96882099      -0.19423163      -0.90723228
C       19.53426800      11.18880670       4.06362671       0.35407829       0.54199844       0.27856465       1.64403272      -0.53715646      -0.31626350
C       18.54489337       9.06621133       3.41636295      -0.33485837       0.05764763       1.01856219      -0.22873648       0.64217627      -0.25380531
C       16.29006928       9.47020783       5.36218635      -0.42903365      -0.35184187       0.33627973       0.84062517      -0.38480359       1.26469243
O       17.04348621      11.74780455       5.34964802       0.35680480      -0.26565597       0.49027178       0.19722018      -0.75046098      -0.16205318
H       15.70802394       9.89493983       6.16833258       0.09057754      -0.28131552      -0.15849299      -0.46215898      -0.06016706       0.05999800
H       15.63497369       9.05211331       4.60856073       0.08255874       0.27453398       0.02994714       0.04276016       0.31565076      -0.47178242
H       16.85268453       8.61881068       5.82381287      -0.03334435      -0.07840819       0.35377560      -0.23042819       0.75299025      -0.53498620
C       20.68646484      10.88609661       3.25688714      -0.23159068       1.01798152       0.37127512      -0.84000719      -0.07422093       1.99881077
H       19.59958813      12.07467189       4.72317814      -0.04767460       0.07922780      -0.38966864      -0.46582550      -0.63767993      -0.60608435
C       20.72154468       9.70128772       2.53307035      -0.35412378      -0.00199824      -0.02491728      -0.51074475       0.59677297      -0.25848424
H       21.59951940      11.43835750       3.48078281       0.35691096      -0.07549515       0.17864119      -0.33525744       0.11979031      -0.72968549
C       19.60553936       8.87159649       2.56158031       0.63901091       0.50497500       0.73968382       0.21618330      -1.62522006       0.19543143
H       21.55559042       9.45926349       1.89238675       0.02405166       0.13259298       0.16828373       0.11587086      -0.00029165       0.30710411
H       19.58637971       7.89636374       2.06879295      -0.10049622       0.16498016      -0.28116666       0.35374913       0.50594425      -0.29814106
H       17.72775535       8.34163944       3.38190728       0.03435889      -0.03936928       0.03913968       0.34790930       0.39245823       0.41372713
C        6.68034739       4.73853818       2.16268268       0.63207018      -0.22902134      -0.53878599      -0.81685257      -0.79655856      -0.90074962
C        7.82816027       4.72506972       1.24558963      -0.11276196       0.33646282      -0.62028203      -2.35625935      -1.10267818      -2.45169401