1088
Lattice="22.733035712566295 0.0 0.0 0.0 22.733035712566295 0.0 0.0 0.0 22.733035712566295" Properties=species:S:1:pos:R:3:momenta:R:3:forces:R:3 mol_liquid.pdb=T energy=-700443.4375 free_energy=-700443.4375 stress="0.0019913027063012123 -0.0005871955654583871 0.00033258178154937923 -0.0005871955654583871 0.0016908496618270874 0.0013990207808092237 0.00033258178154937923 0.0013990207808092237 0.0027246768586337566" pbc="T T T"
C        7.65248571       8.60081043       2.40175002      -0.38907537       0.13000079       0.00917082      -0.09126081       0.62560058      -1.42882419
C        6.88962060       9.48830670       1.54569420       0.03301633      -0.02352117      -0.74517012       1.13335085       0.22074744       0.42204693
C        7.28916565       7.31060359       2.53421066       0.22339271       0.16347115       0.45332663      -0.91157848      -0.40931079       0.46884957
H        8.61027696       8.88629112       2.77840936      -0.23664586       0.01578885      -0.14250022       0.02236232       0.42540866       0.42034811
C        5.78963501       9.01046433       0.94435074      -0.59914434       0.15750006      -0.59182963      -0.03899970      -1.38743567       0.68471920
H        7.22930439      10.50808400       1.31112084       0.08943823      -0.08760187       0.17348224      -0.07078586      -0.62695038       0.43637955
C        5.36564657       7.65080640       1.13058542      -0.30314605      -0.03686198      -0.48174504       1.19459546       1.61177099      -0.11216911
H        5.17801202       9.53232203       0.28145372       0.19468906       0.00099400      -0.33669845      -0.63128692       1.05960214      -0.89147353
C        6.10395064       6.79568155       1.90953982       0.67496014       0.90234462      -0.17814972       0.78652549      -0.37406287       1.39998269
N        4.31268635       7.26439874       0.44814298      -0.03450517      -0.29543456       0.44944182      -2.53373003      -0.15991101      -1.17971349
C        5.66919279       5.45757745       2.05951200       1.27118522       0.62183674      -0.45528796       1.62783945       0.24988823      -0.94394726
H        7.83495428       6.67303059       3.20604268      -0.10067990       0.12469135      -0.18946238       0.26621693      -0.32280567      -0.08497291
C        4.67290159       5.04608607       1.21665057      -0.65237198      -0.29393842       0.07079950      -1.21490335      -0.53533065       1.22938085
H        6.37769061       4.85357982       2.64625221       0.18950887       0.41091002      -0.17134063      -0.96288335      -0.20659411      -0.15307553
C        3.91901196       6.02633064       0.52536772       0.07399050      -0.09856594       0.31550074       0.45963496      -1.18361366      -0.97939909
H        4.26671574       4.03138706       1.27086786      -0.15785489       0.15224312      -0.00073866       0.39360419       0.32107496      -0.22159812
H        3.04284190       5.70167942      -0.08880154      -0.21469452       0.01373826      -0.03511636       0.93873072       0.41820791       0.72663426
C        3.67674582      21.17543221       8.53941924       0.71522534       0.80550275       0.78191234       1.09290695      -0.31202310      -0.35316968
C        3.01652092      20.35929186       9.50939246       0.16644781      -0.18673532      -0.42032688       0.46114993       3.49919319       1.35020900
C        3.76400547      20.76093480       7.24454417       0.56832811       0.70035374      -0.71818874      -1.11356044      -0.17399001      -0.17936054
H        4.23133610      22.07384163       8.79176041      -0.16132180      -0.11018907      -0.06513964      -0.06713496      -0.20941783       0.44450244
C        2.26743481      19.35626412       9.12948870      -0.45315480       0.29551110      -0.46642007      -1.39777875      -1.96784258      -1.87007892
H        2.89737224      20.74704963      10.53531286       0.08045063      -0.07194990      -0.02023219       0.62590599      -0.46616608      -0.47152650
C        2.10932946      19.04319910       7.73295535       0.15946641      -1.77999682      -0.36860746       0.78211987      -0.29728973       0.26793641
H        1.69862251      18.76366652       9.80597906      -0.16798901      -0.00572097       0.16311635      -0.32579297      -0.27588207       0.46079421
C        2.89582011      19.69684248       6.76610295       0.39852204      -0.43271326      -0.96057064       1.58023095       2.38873458       2.43033981
N        1.25585684      18.06069401       7.40263423       0.85496991      -1.25643375       0.36992418      -0.98848039      -0.05855890       0.35962063
C        2.88195447      19.38710921       5.43747050       0.00800705      -0.45002359       0.05969610      -1.25297308      -3.10696888      -2.06190968
H        4.39231313      21.27236816       6.52032998      -0.14408660      -0.11072355      -0.05013941      -0.16790421       0.03370433       0.12663881
C        2.02955049      18.33186279       5.11642111       0.44540104       0.23842373      -0.61864630      -2.09928513      -1.06359541       0.55359453
H        3.56579494      19.77270039       4.67743068       0.08662855      -0.09291334      -0.09590993      -0.24149838       0.12062111       0.53419983
C        1.10747780      17.76212286       6.14515141       0.23163171       0.16194033       1.21881990       2.18213558       0.80716723      -0.78347713
H        1.90582975      17.79041655       4.16940758      -0.15733661      -0.17233300       0.07261641       0.45094645       0.85308212       0.03929003
H        0.34935821      16.98937304       5.98812890       0.00616303       0.23763735       0.14491711       0.44484299       0.28450137      -0.73908687
C        7.77645116       9.89962051       5.38035576       0.64808377      -0.22953477       0.25631757       0.25075519      -0.45755541       1.30944610
C        8.09863834       8.58878545       5.83387181      -0.93854177      -0.53155032       0.19093619       2.19028711       0.22776441      -0.77775341
C        8.66548639      10.92301433       5.61116998       0.57948392       0.20058199      -0.33129218      -1.27167416       0.81590545      -0.52170789
H        6.79010796      10.03124011       4.97500464       0.21103910      -0.02509842      -0.01102050       0.02112261       0.44738129      -0.38035846
C        9.36894019       8.38366830       6.39056840      -2.11344769       0.33409352       0.22740146      -1.13604116      -1.58203304      -1.08819604
H        7.54916181       7.72744771       5.44501085       0.02353886      -0.02902078      -0.15545672      -0.13218558       0.37059283       0.63096952
C       10.27001154       9.45216933       6.61075725       0.50361436      -0.07217367      -0.80621184       0.75994027      -0.71692449       0.01074587
H        9.69891448       7.31482746       6.46047857       0.18214072       0.05835072      -0.18675601      -0.10622431       1.30887616       0.51126802
C        9.91968170      10.74496840       6.20530056       0.53901205       0.19993445      -0.76124668      -0.13356191      -0.70313203       0.56317627
N       11.51541615       9.16980663       7.09307246      -0.23320016       0.54341563       0.40198827       0.73324859       0.16779676       1.04708290
C       10.84910811      11.76681922       6.41318639       0.72830744       0.12885125       0.85638442       1.64380240       0.29447657       0.23364513
H        8.39855189      11.94237676       5.34561729       0.11137807       0.23133960      -0.00986046      -0.07997824      -0.15018521      -0.14791568
C       12.10348968      11.50108766       6.97746362      -0.16480657      -0.80108186      -0.38105600      -0.87317085      -0.36433807      -0.53377932
H       10.57047037      12.73719581       6.05296411       0.03160738      -0.15226379      -0.03671743       0.15502223       0.35106474       0.02991805
C       12.37735210      10.15065743       7.33781969      -0.44699602       0.80018014      -0.23449313      -1.86049235       0.26668075      -1.21944702
H       12.91278821      12.22949549       7.08098025       0.15489277       0.27774946       0.14043587      -0.65818286      -0.03527409       0.00813553
H       13.31682860       9.93025290       7.79346362      -0.13958038      -0.15468868      -0.09711396       0.51953781      -0.49520350       0.14869304
C       20.24861970      -2.39787693      11.42894718      -0.02310394      -0.10237619      -0.32230466       2.50276899       0.04108596      -0.67463976
C       19.70430261      -3.67990132      11.45880276      -0.60485464       0.59889819       0.03491642       0.51308978      -0.76191598       0.96020240
C       21.60789040      -2.19689243      11.62904447       0.25637158       0.74825525      -0.55342059      -2.01398659       0.67948437       0.89975637
H       19.73424798      -1.53819179      11.11470312       0.07358337       0.04660147      -0.25170912      -1.15529215       0.71226150      -0.14167053
C       20.48485184      -4.75129039      11.87430465       0.64625611      -0.12223010       0.28408428       0.42000628       1.34435368      -0.28645346
H       18.65611479      -3.72600016      11.30140163      -0.17730496       0.11040891      -0.05805256      -0.77302080      -0.56434828      -0.24543968
C       21.86157741      -4.48315367      12.19959250       0.05856297      -0.43103279       0.18928990      -0.70170259      -2.77057505       0.27277678
H       20.12889653      -5.76447378      11.98644266      -0.03272321       0.01955888       0.07672323      -0.05962070       0.11968996      -0.09385523
C       22.41028527      -3.23814177      12.08548808       0.19600527       0.68154662       0.53304709       0.67877901       2.34803534       0.06630453
N       22.61260762      -5.55424169      12.63106079       0.65625360      -0.05127387       0.07727620       2.01410580       0.27565318      -0.33120590
C       23.71935437      -2.91293136      12.54734506       0.02513303       0.00860032      -0.63594876      -0.71250361      -3.36777449      -0.48772997
H       21.95341653      -1.18048250      11.75812316       0.00205891      -0.08563344      -0.20815041       0.25170547       0.04528913      -0.51418078
C       24.47859117      -4.00671066      12.88428841      -0.49370741       0.36914204       0.29903444       0.79679245       1.62487435       0.88490367
H       24.01072025      -1.91328384      12.53922464      -0.38920781       0.25830845       0.19791832       0.62091315       1.19105113       0.05893096
C       23.90188525      -5.30553864      12.87663051       0.78900304      -0.10128460       1.15219270      -0.42165822       0.31961340      -0.39372888
H       25.49947181      -3.79786448      13.29435469      -0.00445811      -0.18928597       0.13690565      -0.91371381      -0.73134279      -0.58525765
H       24.65110654      -6.08335672      13.04536206       0.22944904      -0.02431198      -0.01402555      -0.90188569      -0.40719530       0.25697687
C       22.29194955      18.35480337      16.65033668       0.35687131      -0.17268510      -0.14800089      -1.44779181       0.92835557      -0.22074312
C       23.19971082      17.27906356      16.41211081       0.19666304       0.80492781       0.70806274       0.27640113       0.89507645       1.08534408
C       21.03797158      18.29655543      16.08862988       0.15764507      -0.56613855       0.99474373      -0.06551572      -0.96764404      -0.95632857
H       22.48322134      19.29528771      17.24214086      -0.13223160       0.19961565      -0.28248195       0.36806190      -1.54397941      -0.57226741
C       22.91584345      16.17393199      15.68267664       0.46097312       0.54955215      -0.35456113      -2.83060312       1.89930713      -0.95220810
H       24.15334072      17.35012217      16.92417464      -0.03978516      -0.24046550      -0.00394260       0.02303850       0.00755755      -0.40384710
C       21.56491200      16.10517013      15.04417069      -0.47772504       0.41736002      -0.73864067       0.47711802       0.16145615       1.56351459
H       23.73097041      15.55336977      15.46973700       0.01941271       0.18798722      -0.14123167       0.47724992      -1.52028418      -0.34529972
C       20.61347701      17.18180113      15.26583812       0.55194661       0.77184860       0.42901541       0.63205880      -1.22596467       0.40945223
N       21.19474325      14.95288323      14.42965862       0.72232738      -0.03062766       0.32510851      -0.57717073       1.00715399      -0.53751224
C       19.25203320      16.98403938      14.81729067      -0.13269310       0.63762667      -0.14505812       1.81306338      -0.41450930      -0.18994251
H       20.27497005      19.04537952      16.19020785      -0.21660621      -0.12982856      -0.23504850       0.14378636       0.50612903       0.41608059
C       18.91977432      15.85069891      14.09443278      -0.28758534       0.77076010      -0.32675403       3.01034307       0.90621126       1.36068046
H       18.56515316      17.76613522      15.03750200      -0.04057495       0.22023627       0.03587021      -0.62574780       0.26250207       0.08251890
C       19.97319169      14.91306303      13.91783003      -0.65837841       0.11192098       0.03131050      -0.32202652      -1.23409891       0.13514233
H       17.96476729      15.70008925      13.73046848       0.34678656      -0.14134920      -0.04579105      -1.67497110      -0.39744419      -0.71339333
H       19.77604394      13.95507858      13.41418902      -0.24959427       0.02733445      -0.09430277      -0.24315697       0.60168493       0.06159015
C       -4.47102513      12.54361153      41.19234115       0.77259641      -0.81741598       1.07569922      -1.22489309      -1.79887474       1.53185153
C       -5.01133209      11.26730249      41.70541196      -0.06333447      -0.33891185      -1.11952524       1.20451307      -0.35205084      -0.27073467
C       -3.63854639      12.51874807      40.12998639       0.68715453       1.08407297       0.13792745       0.69255066       0.06502011      -1.03351951
H       -4.76819177      13.41925767      41.78444681       0.16965839      -0.05172544      -0.19599984       0.35569578      -0.16146716      -0.75929296
C       -4.59125746      10.05210830      41.13377703      -0.85040978       0.35938152       0.04573983       0.09547062       3.05215788      -0.69653863
H       -5.63314960      11.30355952      42.63048305      -0.09024642       0.03157192      -0.13937449       0.55130291      -0.17781018      -1.11872530
C       -3.73640479      10.05197521      39.96613440       0.33327454      -0.15825374       0.83479187      -0.93859398       0.93998957       1.98554230
H       -4.87860649       9.09288178      41.43475580       0.33514485       0.08482913       0.05029876      -0.58256841      -1.06362486       0.81081545
C       -3.25389476      11.28978170      39.48635142      -0.05739217       1.60053296      -0.61058140      -0.75841296       0.29641014       0.05184776
N       -3.44124863       8.83875479      39.45494152       0.44507000      -0.79252638      -0.19444859      -1.32946801      -0.52636981       2.15471125
C       -2.51890799      11.23281842      38.28630653      -0.83886554      -0.71535035       0.84201944       0.56093621      -0.07526680      -0.62594354
H       -3.22194139      13.41511280      39.66358781       0.10907195       0.14020395      -0.02400516      -0.21659443      -0.05211189       0.40748212
C       -2.27275475       9.98629682      37.78153184       0.49472639      -0.27091456       0.96292971       1.37912118      -0.12345107      -2.00521755
H       -2.13856075      12.11674266      37.72931180      -0.00980091       0.05028828       0.02138821      -0.42423981      -0.55534548       0.75714344
C       -2.70943481       8.79957691      38.43369433       0.27973231      -0.34990647      -0.58474587       1.80208445      -0.06117433      -3.26515913
H       -1.69132437       9.89200337      36.80900230      -0.03994936       0.14452998       0.04397068      -0.80334473       0.01063869       1.48476863
H       -2.42138374       7.83010848      37.97165929       0.02681799       0.13196514      -0.00876093      -0.39602372       0.72377753       0.53694713
C        1.95558380       1.97118727      18.28071068      -0.06241006       1.29119227       0.73021587      -0.85120356       1.39567161      -0.66015959
C        2.84070151       0.96910930      18.67811765      -0.06368440       0.98000096      -0.52434154       0.00504979      -0.07299666      -0.62544239
C        2.19343606       2.66195027      17.10890430      -0.25195122       0.63938324       0.73258242      -0.36071032       0.45802212       0.29967195
H        1.05039361       2.25650417      18.86356596      -0.00280245       0.10587681      -0.06064986       0.92379916      -0.42666078      -0.28240508
C        3.96902292       0.74292439      17.92999379      -0.65906705       0.32998387      -0.11493765       0.93455154      -0.82460469       0.25725394
H        2.55537244       0.38570939      19.52750582      -0.06917195       0.19615065       0.13641719       0.34533307      -0.34618622       0.15115900
C        4.33428909       1.50493012      16.77506399       0.48035512      -0.12264387      -0.63704185      -2.36333227       0.29121634       0.53618991
H        4.62387892      -0.11743461      18.15362485       0.07186264       0.08085432      -0.03377903      -0.42624319       0.97123027       0.09951667
C        3.30243490       2.40638338      16.27643206      -0.28176141      -0.13029374      -0.80160597       0.99926305      -1.38391089       1.58533812
N        5.51474502       1.28144506      16.17729972      -0.71020105       0.67109113      -0.88055392       0.65831721      -0.79645157      -0.18539956
C        3.51998598       3.03086155      15.05867992       0.48686350       0.92492672      -0.23191034       1.74672723      -0.14568210      -0.21050408
H        1.67428574       3.59065791      16.86779326      -0.08565844      -0.00136244      -0.13960489      -0.38240570      -0.66758692      -0.03971823
C        4.77746935       2.84815463      14.53302411       0.07670464      -0.12701681      -0.15410898       0.97757787      -0.19326970      -1.00391781
H        2.78120831       3.62664056      14.57187707      -0.01561564       0.13166689       0.04510582      -0.21071225       0.23541521       0.07684839
C        5.74411499       1.91561069      15.06324902       0.42053641       0.34317843       0.45036008      -1.65252590       1.78311896      -0.02791727
H        5.11513352       3.41045941      13.66038548      -0.03257347       0.01613635      -0.09991643      -0.36502987      -0.42651233       0.21978112
H        6.67559137       1.79928320      14.52352234      -0.00302023       0.04600330       0.23490956       0.04521516      -0.20707205       0.25083575
C        9.54486735       0.04662251      -5.05303289      -0.29318347       0.56209711       0.12796164       0.36760998       0.98885906      -0.21882994
C        9.53900098      -1.21443472      -4.52959378       0.37747851      -0.22903029       0.73448589      -1.06986690      -3.08119106       1.57780802
C       10.73121270       0.70006016      -5.05297418      -0.20620308       0.35746780      -0.15617250       0.92017311       2.24313855      -0.57563555
H        8.64532818       0.51398779      -5.42264152      -0.17148863      -0.03125595       0.00928014      -0.02783057      -0.05096802      -0.15180387
C       10.69578827      -1.83863716      -4.10073010      -0.69505867      -0.24181234      -0.81662314       0.30844629       0.97706574      -0.27156523
H        8.55818286      -1.72093820      -4.35112600      -0.24225058      -0.02444945       0.03724632       1.13829541       0.25716272      -0.48280430
C       11.92032849      -1.12034317      -4.04480118      -0.99069291      -0.78491563       0.18937214       0.36007509       0.62875533      -0.11313375
H       10.77742955      -2.84811038      -3.77685590      -0.22795270      -0.13532429      -0.08850535      -0.55014384      -0.53909492       0.34754977
C       11.95119004       0.22827745      -4.45370897       0.07863987       0.92093804       0.51063679      -2.82435656      -0.25072664      -1.39449668
N       13.06475527      -1.68102312      -3.58765085       0.32801171      -0.84206299      -0.17423795      -0.49314922      -1.56024194       0.54409420
C       13.10957220       0.97792474      -4.40114410       0.11008614       0.70491081      -0.18397106       2.56689334       1.01660430       0.18420562
H       10.75236902       1.67170937      -5.58768604      -0.08389765       0.09504696       0.30763438       0.15308887      -0.46194220       0.69408661
C       14.28279139       0.35524937      -4.00170791      -0.28701892      -0.70599253       0.83961362      -3.01684570      -0.38097566      -0.05149285
H       13.19726019       2.06257108      -4.63032668       0.23520006       0.05021185      -0.29508039      -0.62653834      -0.94110298      -0.08536462
C       14.15709262      -0.99979991      -3.57239019      -0.68134710      -0.51078461       0.33356959       0.55427152       2.38946581      -0.66667247
H       15.15297266       0.93030665      -3.93335731       0.04481757       0.16242732       0.03337875       1.36311507       0.24346647       0.18662682
H       15.07236384      -1.35635934      -3.20096784      -0.23287801       0.08794686       0.18320502       0.86011326      -1.37826705       0.63580728
C        6.22909841      18.52375255       6.60567050       0.90882644      -0.16829302       0.77900154      -0.05405760      -0.15030542      -0.16328166
C        7.11238571      19.62769079       6.90868641       0.08078687       0.10801207      -0.85004131      -1.78193974      -0.24398299       1.53400850
C        6.58691937      17.66440914       5.60207286       0.64181901       0.08001900      -0.27990385       0.19402179       1.07394123       0.51087451
H        5.25289502      18.29076644       7.09886626       0.07076142      -0.03604317       0.01018740       1.24629676       0.75905085      -0.14134470
C        8.21653797      19.88049559       6.17916608      -0.33431983       0.34010286       0.08717491       1.19155335       0.15902099      -0.09007876
H        6.89736914      20.19308496       7.82754587      -0.02784905      -0.11415817      -0.20261156      -0.06397969       0.07644747      -0.73087102
C        8.64010445      18.91115549       5.24167699       0.25471698      -0.14417896      -0.02058588      -1.82528114      -1.00529790      -0.25288451
H        8.93669145      20.71374781       6.31392833      -0.05554004      -0.07450117      -0.00323244      -0.81637430      -0.59462416       0.28983253
C        7.79986205      17.79609066       4.92288585      -0.14899978       0.36120993       0.24848067       0.98844939       0.07372671      -0.28692138
N        9.82868099      19.05673256       4.70382473      -1.08163096       1.01633548      -0.08821809       2.42650032      -0.01124027      -1.04393816
C        8.26451864      16.78781167       4.01475725      -1.23602399      -0.42493877      -0.98310225       0.02576000       0.74673200       0.25825983
H        5.99151118      16.85552912       5.33400763       0.23886471      -0.02948146      -0.02885802      -1.17957127      -1.27548552      -0.22683340
C        9.56486171      16.94471701       3.55449941       1.20442591      -0.47069631      -0.05906935       0.48346621      -0.41377589       0.69756722
H        7.54452552      15.96242077       3.75805653      -0.30608494      -0.04254520      -0.07721297       1.24930108       1.17263484       0.27425694
C       10.33913879      18.09693759       3.95283640       0.86227613       0.64673737       0.28766659      -2.30371952      -0.04789767      -0.17752239
H       10.09830411      16.12968132       3.05504193      -0.34028858      -0.17868011      -0.14591093      -0.38192827       0.46934724      -0.18143260
H       11.29524594      18.32654348       3.53864744       0.15204529      -0.21115391       0.15614507       0.61940330      -0.39720362      -0.14958704
C        9.93036961      17.94784677      -1.33183171      -0.31639037      -0.12602751       0.58034534       0.26725760      -2.84103036       0.13136148
C        8.38223039      17.86933711      -1.33542394       0.09617649       0.42478648      -0.14032809      -0.78195757       2.19143581      -0.60841024
C       10.53310372      19.29583060      -0.93207888      -0.55191089       0.11574681       0.71050338       0.16283226      -0.45792466       0.53175914
H       10.39359725      17.22281809      -2.09252171      -0.19115857       0.29116556      -0.08363890      -0.20577292       1.58646226       0.96516418
C        7.70538093      19.16863361      -1.77083847      -0.75448250      -0.30800620      -0.22766384       1.34487319      -1.16348886       1.43907952
H        7.92567733      17.04305754      -1.85801406       0.05509254      -0.03314468      -0.17799930       0.46896726      -0.11807603      -0.19697182
C        8.24596365      20.31145197      -1.35798130      -0.26194241       0.01506271      -1.32401792      -0.61181575       1.68969870      -1.52787971
H        6.75359137      19.20308062      -2.23174911      -0.32013352       0.07334822       0.11207972      -0.63007975      -0.12015112      -0.53438705
C        9.53465832      20.44964387      -0.65882692       0.52782029       0.27354757      -1.34031449       1.37510216       0.03890806       0.15181100
N        7.57781365      21.48665539      -1.80245739      -0.20809374      -0.55676920       0.31044529       0.74594408       1.77519345       0.07618800
C       10.27389669      21.76715743      -0.81496170       0.10615088       0.58326945       0.16766312      -0.81260908       0.41668814      -0.44905746
H       11.44145085      19.55257287      -1.40732423       0.16525408      -0.12797660       0.06797634       0.76150608       0.41036516      -0.70702147
C        9.61549259      22.84346672      -1.32318367       0.24096932       0.63090332      -0.50681550       0.42310709      -1.67377639       0.69214958
H       11.34100527      21.70506542      -0.47789469       0.07504156      -0.05723669       0.20195962      -1.21388328       0.53867996      -0.28955543
C        8.21261062      22.62331345      -1.78207823      -0.44866466       0.64824504      -0.03637713      -0.07437548      -0.49028832       0.39288518
H       10.07478809      23.82152800      -1.37172690      -0.15956602       0.14069377       0.28501997      -0.09959579      -0.03859591      -0.19656022
H        7.69414806      23.53594857      -2.12853404      -0.09482535      -0.05841474       0.07328662      -0.02117626      -0.69897544       0.11740238
C       19.89672256     -13.90283093       3.90332692      -0.40741128      -0.13800604       0.12934247       0.82457906      -0.85277212      -1.72321653
C       19.70064244     -13.83779901       5.29794646      -0.32093808      -0.53675679       0.39657238       1.11786163       0.60628533      -1.05798054
C       18.83242297     -13.98098309       3.05642823      -0.47421186       0.44334703       0.08506351      -1.06691062       0.68783104      -0.36919922
H       20.90066692     -13.97688165       3.43043830      -0.14558052       0.03630031      -0.03824744      -0.75252873       0.04567462       0.75333160
C       18.52287236     -13.59565372       5.82207788      -0.13770008      -0.46766912      -0.07431811      -4.39773369      -0.89342439       0.46506554
H       20.47490240     -13.86052114       5.98436842       0.07010635      -0.02246301       0.15740609       1.89217341      -0.04081331       0.80023646
C       17.32475781     -13.71930009       4.98062186       0.14612310      -0.24767673      -1.03496230       0.04508495       1.18444622       0.85482872
H       18.32335717     -13.49921305       6.89514422       0.03094963      -0.13718874      -0.03176777       0.35119712      -0.02062849      -0.42289859
C       17.48350604     -13.85631805       3.57434746       0.32464525      -1.32503047       0.60818569       2.72185802      -0.63717031       1.18548870
N       16.08760351     -13.55728280       5.58248680       1.02501705       0.06363843      -0.40342006       0.66336429       0.30257517      -1.45366704
C       16.36032003     -13.99087714       2.81452837       0.15025137      -0.40843232      -0.17365150      -1.15941596      -1.11366415      -2.56111431
H       18.89020903     -14.01270887       1.95158254       0.08843019      -0.03050291      -0.18755574       0.44149336      -0.14079112       0.87562442
C       15.17493852     -13.76190113       3.37999924       0.20475165       0.69412613      -0.42838228      -2.64426351      -0.09082046      -0.55570161
H       16.22542524     -14.40802549       1.79242462       0.01847227      -0.03379713      -0.21985090       1.26591182       0.70711297       0.51933330
C       15.07254556     -13.49470942       4.72163317       0.04205649      -0.15713257       0.56588565      -0.62306470       0.65786421       2.71582460
H       14.24999464     -13.87180253       2.78707485       0.17496081       0.14308386      -0.16050620       0.64467007       0.12298232       0.46543944
H       14.10071272     -13.18579712       5.18223801      -0.07247060       0.09416393       0.04904130       0.77471459      -0.62886065      -0.53084397
C        4.14276863      10.56711101      19.66931331      -0.07899829       0.48843357       0.03726072      -1.01519763       1.91153789      -0.04228389
C        3.36566435       9.75329610      20.51288397      -0.55956710       0.75643592      -0.02197603       0.33361030      -1.12249792      -0.03195371