896
Lattice="21.147194706318455 0.0 0.0 0.0 21.147194706318455 0.0 0.0 0.0 21.147194706318455" Properties=species:S:1:pos:R:3:momenta:R:3:forces:R:3 mol_liquid.pdb=T energy=-501201.0 free_energy=-501201.0 stress="0.005374809727072716 -0.00040168382111005485 -9.7891956102103e-05 -0.00040168382111005485 0.0022350505460053682 -0.0006864965544082224 -9.7891956102103e-05 -0.0006864965544082224 0.002783337142318487" pbc="T T T"
C       12.36374332      25.99273885     -12.63445968      -0.66008742      -0.15988652       0.69889549       2.43313336       0.62997961       1.78646255
C       11.59476677      25.00544181     -12.08633664       0.46842196       0.09070498      -0.23842386      -1.33405995      -1.16527951       0.60158992
N       13.48100306      26.45358672     -11.96827627       1.12309374       0.34590926       1.35682713      -0.96490127      -0.67207843      -1.48592329
H       12.09007294      26.38417651     -13.60613400       0.04001285      -0.04629846      -0.19854991       0.35103577       0.32377997       0.06645137
C       10.41890979      24.50883719     -12.87830643      -0.85829982      -0.48299209      -0.26281728      -0.62462139       1.65396309      -1.73669076
C       11.85899954      24.47335322     -10.81470618       0.20321664      -1.02197208      -0.74492131       2.30155039       2.58288527      -0.62406933
H        9.53894961      25.21788724     -12.90280705      -0.07612915      -0.19986111       0.11626413       1.18360293      -0.21558115      -0.02569503
H        9.95989397      23.64396757     -12.49759565      -0.05447608      -0.03639782       0.02012359      -0.06171674      -1.38677633       0.46866027
H       10.74625583      24.35492978     -13.94922618      -0.06189111      -0.06044163      -0.10149307      -0.53748709       0.02207991       1.15960515
C       13.02752865      24.97532305     -10.15799902      -0.62363340      -0.40717563      -1.22967839      -2.24983668      -2.16790676       0.10983233
H       11.16511750      23.79565955     -10.43017121       0.04921904       0.05024551       0.15796388      -0.64382076      -0.98364711       0.88580692
C       13.81052207      25.85391874     -10.81493834       0.71684177      -0.33035079      -0.40437942      -0.06692100       2.03472185      -0.92918468
H       13.33180557      24.69023836      -9.16064514      -0.09945228      -0.10192909       0.04544157      -0.19416179      -0.33320135      -0.06397992
H       14.67203306      26.25920963     -10.30916820      -0.05093329       0.10874404       0.07691782       0.28556979      -0.04390210      -0.05219325
C       11.69158806       8.84212301      17.45646287       0.27769016       0.96271753      -1.02894505      -0.68713295       1.24312186      -1.93470907
C       10.66609642       8.80387621      16.47799346       0.50833137      -0.32875926      -0.89887391       0.28495657      -1.49524021       0.32406402
N       11.66383827       8.21354372      18.59248790       1.13274431       0.06150650       0.27107493      -0.56738096      -1.43532383       1.56601071
H       12.51783425       9.50660857      17.18820394       0.03630319       0.13859842      -0.27214422       0.09900706      -0.33440673       0.57877982
C       10.70463605       9.49121582      15.18702164      -0.49436064      -0.06538768       0.36576088       3.38864136      -1.04843378      -1.21911705
C        9.60328047       7.97039618      16.72860771      -0.49297554       0.14345738       1.52063863       0.59805614       0.84912109       0.24546039
H       11.29466135      10.36564119      15.34371613       0.01114324       0.01799160      -0.31013250       0.09575207       1.10600972      -0.42702633
H        9.75064159       9.66125457      14.84820883       0.00622328      -0.13112405       0.24632456      -2.10516334       0.89990711      -0.79260731
H       11.25094712       8.93469051      14.32532383      -0.15019685       0.12918388       0.03183837      -0.83532155       0.55486453       1.61083460
C        9.57542794       7.32417973      17.91124151       0.34953331       0.25610626       0.44159330      -1.38267040      -2.87213874       2.79096222
H        8.78293600       7.84902832      16.08155883       0.15412538       0.10544365      -0.13295233      -0.71977282       0.07644960      -0.96350944
C       10.58538186       7.39924077      18.85329103       0.21984887       0.07853254      -0.52573043       1.28843999       1.18332100      -0.69186282
H        8.74000592       6.62196529      18.15752663      -0.18745622       0.02702255      -0.09194555       0.66552269       0.89677680      -0.33898991
H       10.59360846       6.82147744      19.79509378      -0.00134615       0.02928573       0.00803236      -0.08373477       0.53858840      -0.67815304
C        1.95412658      -9.34132718     -14.69612644      -1.00238526       0.28671905       0.41486562       0.67492533      -0.00857848      -0.48808646
C        2.14933297      -9.80871281     -15.98686763      -0.05606916      -0.20858472       1.05430223      -0.63592762      -1.55411208      -1.11189318
N        0.92536044      -8.56100485     -14.37309872      -0.29301545       0.35069384       0.22813307      -0.40864849       0.91865623       0.15385890
H        2.73355039      -9.52417113     -13.91886245      -0.06972134       0.05342150      -0.21719481      -0.84116352      -0.05123991      -0.67623949
C        3.27884371     -10.79358736     -16.31597098      -0.36926075      -0.91796462      -0.22738340      -0.24547106       1.15014184       1.30848026
C        1.15588789      -9.50769722     -16.98761421      -0.78197448      -0.10312025       0.27960306       0.46503437       0.08688498       0.39602843
H        3.98245053     -10.85504151     -15.48122855       0.16044142       0.06544330       0.05765899      -0.32312715      -0.08066813      -0.03959431
H        3.80842551     -10.29534519     -17.08193093       0.19085336       0.03594872       0.10516646       0.77912146      -0.06361204      -1.28062701
H        2.98135977     -11.80502510     -16.57815676      -0.13967288       0.03778795      -0.41251897      -0.24533218       0.17471427      -0.15131055
C        0.05860837      -8.78407728     -16.61265504      -0.35746481      -0.41172601      -0.27747558      -1.41577172       1.01211011       0.46904668
H        1.15497412      -9.73089186     -18.06349437      -0.04551708      -0.03879224       0.05876561       0.67960376      -0.64188331       0.74035460
C        0.01437461      -8.27118658     -15.29664238       0.12773017       0.34167289       0.68726865       0.42769173      -0.46543384      -0.47714448
H       -0.82433461      -8.58263330     -17.29291788      -0.03530311       0.04241827      -0.30475755       1.45809484      -0.16736451       0.76841545
H       -0.74235794      -7.54406984     -15.03642310      -0.09934077      -0.17105445      -0.33742585      -0.20463586      -0.43195400       0.17013189
C        6.70905714      18.68394041       6.86254656       0.22595535       0.17458889      -0.05465497       0.98584294       0.95060825       0.58937621
C        5.35951252      18.41840330       6.87236774       0.38848508      -0.87474639      -0.27458406       0.66304970      -0.07316615      -0.53792906
N        7.33506348      19.40130612       5.91540780      -0.50888567      -0.30074886      -0.01478447      -1.01405764      -0.44910553      -0.95426559
H        7.29713992      18.45242980       7.74541198       0.13745822       0.01479914       0.05839880       0.13509023      -0.22212723      -0.15207048
C        4.64197790      17.79724183       8.00986381      -0.71859775       0.19191525       0.55727829      -0.50260389       1.93060017       0.25751439
C        4.68532442      18.85345387       5.75525309      -0.37969869      -0.15331817      -0.13461634      -2.53759718      -1.23789489       1.67229199
H        4.16907334      18.66000277       8.52988109       0.15266940       0.13714015      -0.03770128       0.11891589      -0.63392872       0.00020091
H        5.25379970      17.30599806       8.73249542      -0.22585585      -0.06494395       0.24583929       0.35795403      -0.58426392       0.12590897
H        3.83486158      17.22473863       7.62166103       0.11764405       0.04333317      -0.00828114      -0.51309872      -0.83766770       0.02295317
C        5.26143124      19.52584327       4.74409066      -1.05581513      -0.73817203       0.41541383       0.18112305      -0.19634458      -0.25779873
H        3.60448628      18.62777837       5.74776012       0.17426610      -0.18503218      -0.05513446       0.64779353       0.40944329      -0.19873801
C        6.59583421      19.76596120       4.82477217       0.52402277       0.37407704      -0.39275531       2.34554172       0.30863243       1.25837755
H        4.60525188      19.78886282       3.98043714       0.21935675       0.09209276       0.13954391      -0.34435424       0.74014521      -1.52281260
H        7.18314146      20.32987053       4.11526438       0.05514519      -0.08983767       0.13327540      -0.38986316      -0.14550063      -0.31235075
C       39.40982274       5.54812677     -19.54458687      -1.54607635      -0.67950213      -0.29494963       0.18835178       0.23687428      -0.62317300
C       38.39924530       6.52452010     -19.47241240      -0.42728154      -1.12019814       0.62794865      -0.37093717      -1.07272029       0.21135935
N       40.54855799       5.64726508     -20.23009943       0.20406751      -0.19096043       0.40340865      -0.83731925       1.45082688      -0.31399554
H       39.27227980       4.60249971     -19.09334579      -0.15382448       0.17579042       0.10210177      -0.25764313      -0.81359315       0.67729390
C       37.08722313       6.11503191     -18.76619253      -0.69445688       0.26292166      -0.22742662       0.79007429      -0.21673980      -1.63767266
C       38.63987423       7.70187613     -20.14329022      -0.05454099      -0.04583578      -0.12310887      -0.72664803       0.08655895       0.90503180
H       37.35058658       5.49288837     -17.95286487      -0.05922986      -0.11437050       0.00933122       0.21476872      -0.67631423       0.89388025
H       36.50373504       5.46166314     -19.45767204       0.25670823       0.02424194      -0.15331482       0.25991118       0.78695089       0.55906552
H       36.49051039       6.91881955     -18.38287310       0.04095280      -0.14942808      -0.02395407      -0.28391308       0.55050915      -0.16876769
C       39.82669540       7.87925211     -20.83616016      -1.06493538      -0.21603252       0.30833337      -1.57296371       0.92187005       0.32485110
H       37.90757749       8.47494858     -20.00094896      -0.06818690       0.00443268       0.22846675      -0.12816812       0.42392200      -0.42234245
C       40.67747516       6.83841054     -20.87459319       0.08633204      -0.27379235      -0.33836655       2.64781189      -1.25017679      -0.28716937
H       40.01698547       8.83568461     -21.29460470       0.10459366      -0.16830734      -0.37326621       0.23368238      -0.12357995      -0.25244832
H       41.62080949       6.98963645     -21.40594757      -0.04411129      -0.06302921       0.11950716      -0.23633051      -0.32060444       0.09166408
C       -0.17592840      -6.15083382      -6.34492944      -0.39595396      -0.03293565       0.20556620      -1.43838739      -0.94271982       2.55743146
C       -1.47550332      -5.87268793      -5.87256874       0.17224346       0.18630044       0.42609294       1.92235851      -1.21227074      -0.87602335
N        0.76469094      -6.75756898      -5.60323604      -0.08770767      -0.16454113      -0.68677705       0.02861571       0.67203623      -0.01064534
H        0.00539624      -5.94601000      -7.34616031       0.11342080      -0.30252862      -0.13557173       0.83058333       0.32139573      -1.67928219
C       -2.36825234      -5.26796692      -6.94468347      -0.34425399      -0.21044937      -0.91855751      -2.19375491      -1.30993521       3.50240397
C       -1.72515039      -6.28190436      -4.54701171      -0.31502686       0.54814587       0.15963664      -2.99554634       2.59484816      -1.05771232
H       -2.04243572      -4.30835224      -7.05342441      -0.18034064      -0.00835669       0.05986376       0.65974641       2.86967039      -0.41489914
H       -3.42784143      -5.22623397      -6.54474265       0.01328706       0.01428143      -0.11948286       1.09856355      -0.19014625      -0.92114460
H       -2.26101276      -5.71934665      -7.88712569      -0.06480255       0.12835006       0.10832512      -0.19382039      -0.94948310      -0.94824052
C       -0.78749413      -6.76514062      -3.72774869       0.60722940      -0.74129623       0.66360924       3.43064070      -1.20216632      -1.25306523
H       -2.67635093      -5.96291484      -4.11234992      -0.01624836      -0.18484251       0.07391545       0.13290237      -0.69105005      -0.36762482
C        0.48731059      -6.99450670      -4.32538716       0.14615364      -0.29457084      -0.53251378      -0.17089069      -0.19618770       0.53858232
H       -0.93751610      -7.09995398      -2.74095649       0.02997446      -0.02725439       0.07073850      -0.33092082       0.07210694       0.94321626
H        1.33467967      -7.39022369      -3.74421348      -0.10823731      -0.08377571       0.26551423      -0.56432915       0.04439715      -0.17931791
C      -35.64950382       4.73282637      19.48415994      -0.23830212      -0.48410089       0.55301778      -0.84802639       1.08997905       1.09227622
C      -36.05745048       4.23339747      20.72274623      -0.55370873       0.46521308      -0.10473451       0.73453623      -1.71150911      -2.84613323
N      -35.71776802       6.02771295      19.13704988      -1.01452161       0.64067763       0.65477198       1.20157170      -0.38635623      -0.89691371
H      -35.28520918       4.08654454      18.74443053       0.00094505       0.01059619       0.21430101       0.34145764      -0.90035355      -0.97318631
C      -36.12045905       2.71454157      20.93349533       0.15072544      -0.51279816       0.59497952      -0.46437487       1.36335385      -0.09881169
C      -36.51073049       5.12603987      21.63117394      -1.37360675       0.17181070      -0.21072080      -0.55409920      -0.27994999       2.53349447
H      -36.78623508       2.22314710      20.21514654       0.02117428       0.02646129       0.23901160       0.40133944       0.22855458      -0.08757710
H      -36.60407082       2.61616392      21.88181295      -0.04888402      -0.02966950       0.04647630       0.09572616      -0.64104515       0.70262444
H      -35.13856631       2.26621382      20.92731612      -0.15170403      -0.27461136       0.03368986       0.13442649      -0.25417545       0.05218580
C      -36.56166044       6.45310097      21.31386388       0.47063816      -0.61912326      -0.95723415       0.53685474       3.28668189      -0.65802044
H      -36.73005169       4.64303129      22.61676242      -0.06239626       0.29562814      -0.31761512      -0.22864480       1.18014073      -0.78186131
C      -36.08404330       6.90453792      20.02852408      -0.12437288       0.41703465      -0.91932735      -1.63763165      -1.28818500       2.68002152
H      -36.87976638       7.32227209      21.96715266      -0.07996694       0.09750109       0.30798330       0.35734192      -1.67133689      -0.49662891
H      -36.12143350       7.96316805      19.81125724      -0.35727654      -0.04637017      -0.15724295       0.17735203      -0.15142077      -0.17381701
C        0.57445589      -3.65109854     -16.53342250       0.80545697      -0.41193716      -0.23239203      -0.57926875      -1.11200345       2.84406710
C        0.90537843      -4.70247703     -15.55837640       1.19342799      -0.60331122       0.12957620      -2.17354393       0.98072827      -1.16344833
N        1.42635908      -3.17157783     -17.38381941       0.59554775      -0.28307123      -0.89449484       1.61150253      -0.42755526      -1.33976221
H       -0.41128895      -3.12868158     -16.46363140      -0.13723421       0.03339958       0.11817261       0.78197873      -0.66063762      -0.08050321
C       -0.18396310      -5.10720548     -14.51963475       0.79298846      -0.25481821      -0.04099642       0.54436880      -0.06046448      -2.87762880
C        2.16880992      -5.24715833     -15.62524949       0.85807675       0.15788980       0.52722000      -1.36703897       0.26856869       0.84718812
H       -1.15366628      -5.36358066     -14.98542640       0.10884387      -0.13800982      -0.01831721       0.43216538       0.60954690      -0.01750405
H       -0.27500466      -4.27447871     -13.89236945       0.37695068       0.40423079      -0.20668934      -0.46035206       0.89111900       1.32030642
H        0.08419142      -6.00101740     -14.03829555       0.05673795       0.06540316       0.25756154       0.68694109      -0.76072031       1.11376429
C        3.06345547      -4.73462846     -16.51034433       0.24997460       1.05969008       0.28127289       0.48931003       0.91894400      -1.70806897
H        2.42957983      -6.01339414     -14.94444979       0.30103125       0.32044866      -0.03700611       0.28202310      -0.68434274       0.58020687
C        2.65679063      -3.76159965     -17.41773424      -0.69587628       0.35063501       0.20016033      -0.46961308      -0.13425775       0.89076930
H        4.10074575      -5.01654567     -16.51546109       0.09557212      -0.09774275      -0.08724174       0.09398429      -0.37287861      -0.08177037
H        3.37902301      -3.44554474     -18.14081872       0.14300257       0.04913693      -0.13772272      -0.04881854       0.47849891      -0.42129362
C      -13.54772697     -28.63786175      17.60114328      -0.60316190       0.01629118      -0.18801522      -1.74973536      -0.04621410      -0.17802297
C      -12.81451196     -29.46572790      16.77423428      -0.78266021       0.09291991      -0.04455535       0.41862702       0.30493608       1.19344318
N      -14.09625271     -29.00962515      18.74013422      -0.35589742       0.29267077       0.62051707       0.40091044      -0.63520420       0.92870629
H      -13.90793612     -27.65771819      17.33645234      -0.04085814       0.09524421      -0.24581194       0.63685101       0.27142936      -0.68940902
C      -12.23974998     -28.89732055      15.58194970      -0.38540912       0.85844650       0.00278117       1.09446013      -0.58411270      -1.44636297
C      -12.39138479     -30.68249040      17.26062316      -0.45009661       0.35437979       0.63091178       0.11827430      -0.64216185       1.94616723
H      -12.77635372     -29.18273875      14.69526860       0.29890394      -0.09621697      -0.07318407      -0.18586148      -0.04370518      -0.55510938
H      -11.21361746     -29.24574156      15.47766545      -0.02991708       0.04431820      -0.32412829       0.06286854      -0.08651915      -0.19979349
H      -12.19288938     -27.85245319      15.66728547       0.12383169      -0.03341931       0.04386294      -0.11215310       1.50070357      -0.11368410
C      -12.83498578     -31.06512649      18.53184997       0.48757554      -0.09240691       0.86105336       0.12070026      -0.17427213       0.92026305
H      -11.56614124     -31.25128240      16.84757526      -0.12101060       0.46308121      -0.06507640      -0.45657688       0.10931213      -0.49453330
C      -13.71685106     -30.18584851      19.21677147      -0.49585129      -0.57433479      -0.08706911      -0.46745935      -1.65059948       1.05109358
H      -12.40557569     -31.98072420      19.05602883       0.05918285      -0.03675639      -0.00320151      -0.85526836       1.32526255      -0.87000763
H      -14.19960502     -30.48042694      20.20842771       0.08660095      -0.17927001       0.33880105       0.94284332       0.36005375      -1.36598587
C       -1.93851479      23.58686557      -4.87889537      -0.83305596      -0.36511560      -0.17968561      -1.42652798       0.45112401      -0.31090862
C       -1.44806841      23.40192139      -3.59548015      -0.08295372       0.30351544       0.71303764       1.11679816       0.56917125       0.88958204
N       -3.09271780      23.07853789      -5.37460524       0.19970343       0.39916880      -0.47163279       0.74885303      -1.08793271       0.95455307
H       -1.45529121      24.30250898      -5.52676868      -0.40261878       0.21229022       0.09600018       0.14177193       0.09711966      -0.10962489
C       -0.29982188      24.22290512      -2.99184504       0.64966223       1.61916180       0.55612238      -1.21832252      -1.66053843       0.51163477
C       -2.04155548      22.43558285      -2.81310737      -0.15866355       0.94964455       0.32501220      -1.61838102      -1.13389766       1.06808639
H        0.45010577      24.40656466      -3.69446336       0.14438508       0.17890767      -0.03633265       1.23940384       0.49276191      -0.96265793
H        0.08608347      23.65085100      -2.16297936       0.16173833       0.32856386       0.10280482       0.52948630      -0.50211239       0.00631432
H       -0.57397110      25.11111437      -2.46686215      -0.04649316       0.13973879       0.26995725      -0.64273661       0.93889320      -0.29024971
C       -3.23133144      21.88265306      -3.30423721      -0.16757064       1.05484518      -0.27483207      -0.21864432      -0.15395893      -0.58486134
H       -1.74902631      22.07196093      -1.77469410       0.13491346       0.13222235      -0.01832206      -0.03440768       1.07716513      -1.62095082
C       -3.74629643      22.19625365      -4.56615278      -0.03767470       0.74925657       1.37470799       2.93708181       1.59803605       0.29622668
H       -3.80483427      21.20114910      -2.71348888      -0.06354008       0.26259720       0.08677009      -0.06540224      -0.34620309       0.37717566
H       -4.56850655      21.70960197      -4.98904154       0.14383061       0.11735817      -0.03253682      -1.33632100      -0.33883661      -0.33424491
C      -16.32180416      -7.88038666      21.43031663      -0.26560997      -0.10622875       0.74017512      -1.17270148       0.49025449      -1.93830490
C      -17.61681941      -7.39682565      21.76753944       0.39506110      -0.36793557      -0.26186238       0.61724442      -0.51668906       1.50320530
N      -15.43780452      -8.44030668      22.20911697       0.62354122       0.44904400      -0.00704671      -1.14774895       0.22182898       3.47437668
H      -16.01629623      -7.75919560      20.38801699      -0.24830092      -0.23487076       0.06930202      -0.03182632      -0.18507332       0.11224902
C      -18.57116899      -6.75093871      20.77604730      -0.29140580       1.03540346       0.29029660       2.00869560      -0.25147524       0.41871303
C      -17.89133715      -7.40003798      23.13883027      -0.79162660      -0.05494251       0.41432398      -0.38138914       0.79666626      -0.16785029
H      -19.31761908      -7.38407868      20.35817386      -0.04193203      -0.09718501      -0.11472681      -0.55621296      -0.54070616      -0.09163357
H      -17.94479999      -6.35574173      19.99292722      -0.13247510       0.21794370       0.12266327       0.03240695       0.00914867      -0.57574332
H      -18.96321093      -5.89704638      21.26283737       0.08356131       0.22568798      -0.24495251      -0.81894028       0.75039697       0.38543499
C      -16.94961060      -7.82776106      24.12237127       0.64935166      -0.51873820      -0.64929548      -0.39266700      -0.49970552      -3.48316669
H      -18.84138915      -6.90647753      23.42302180      -0.07290356      -0.09653258       0.45881190       0.64549136      -0.51556653       0.19392385
C      -15.81186356      -8.42446246      23.57375820       0.51805468      -0.48321288       0.13942300       2.09992242       0.30880311       0.17690761
H      -17.22778816      -7.70611962      25.13563191      -0.09233040      -0.16858574      -0.16918772       0.34868595      -0.23602170       0.85668111
H      -14.96886348      -8.74963651      24.25648838      -0.03958509       0.04177987      -0.21650006      -1.26468956       0.15272233      -0.83115220
C      -12.98475287      12.20371437      10.85377502       1.14825846       0.20618943      -0.34550363      -0.44327492      -2.42505884       1.00221884
C      -11.76995130      12.60995800      11.38242371       0.17046446       0.25369848       0.93547487      -0.22347744       2.57668304      -0.40157950
N      -13.76788381      12.85041546      10.01426577      -0.00792214       0.64453843       0.62732574       0.98575413       1.43848252      -0.54716694
H      -13.41119826      11.20856686      11.12834232       0.42006258       0.09536479       0.03342839       0.73822892       0.77534127       0.00125253
C      -10.96748640      11.76806638      12.33340824       0.09119628       0.17780388       0.43664757      -0.85334313       1.29989672       0.90679973
C      -11.43658708      13.97862000      11.03884651       0.64575333      -1.40058858       0.20350396      -0.55490583      -2.16876936       1.13608050
H      -11.54859462      10.90462472      12.61042598      -0.17330522      -0.06692978       0.10004654       0.24983089      -0.50896716      -0.27228627
H      -10.82598303      12.30167256      13.30978993      -0.15872202      -0.16804406      -0.02258791       0.06665462      -0.26166955      -0.95890826
H      -10.01369440      11.59052541      11.89251771       0.17392894       0.05950691       0.05037722       0.54868329      -0.66576159      -0.03151968
C      -12.23005646      14.71610805      10.20876367      -0.57504585       0.13342619      -0.50193528       0.68399465       0.85440242      -0.44094515
H      -10.65252487      14.48784459      11.51581354       0.04430267       0.35993823      -0.07614692       1.30474854       0.23724101       0.48946989
C      -13.31332334      14.06950549       9.67695115      -0.29623158       1.42392040       0.49819583      -1.76378250      -0.14692193      -1.32285619
H      -11.95364035      15.77594219       9.94776549       0.27370733       0.09179069       0.11598293      -0.54821783      -1.42854428       0.24192671
H      -13.87874191      14.53246274       8.88041532       0.18946123       0.28355966       0.05713518      -0.21353191       0.30379289       0.11534105
C       13.89573871      14.49223374       3.22639665       1.03909370      -0.95149479       0.21495671      -2.77675796       0.48602468       0.78592509
C       13.53210883      14.72435040       1.90407958       0.14025855      -0.82651111       0.03934592      -0.43884367      -0.16887254       0.44562343
N       12.99224270      14.31993628       4.23344941       0.91315624      -1.14863017       0.31775969       0.59118485      -0.58442146      -1.12953377
H       14.89853526      14.57204862       3.51779436       0.05102136      -0.46994203       0.08270954       1.31213951      -0.13988020       0.37980676
C       14.62842607      14.83968246       0.89088938      -0.54990713      -0.67221872      -0.22606566      -0.18786293       0.90830696      -0.57539451
C       12.15737477      14.73075299       1.61804445      -0.10631086       0.32988297      -0.41443722      -0.05283892       0.55139244      -0.51363677
H       15.50605740      15.42313633       1.19152753       0.03943045       0.15517929       0.17530319      -0.63559860       0.19078632       0.13461417
H       14.29339145      15.16309031      -0.10489071       0.18390744      -0.08199221      -0.00906038       0.01798686      -0.00819584       0.42674926
H       15.05889110      13.88479827       0.78532952       0.06217581      -0.10810441       0.08786432       0.44314057      -1.33932805      -0.38477543
C       11.20858937      14.53719101       2.63293924      -0.33820602       0.15435304      -0.06725762      -0.02203161      -0.68714666      -0.41003802
H       11.85601603      14.94260706       0.58267680      -0.25811420      -0.04383720       0.16765139       0.03465132      -0.17753319       0.59206069
C       11.69691954      14.24221902       3.89372943      -0.52701628      -0.08914927       0.30994502       0.49998581       1.02312803       0.77442521
H       10.10707475      14.49136927       2.49401918       0.06014589       0.20778669      -0.07188831       1.18250585       0.26574746      -0.20328020
H       11.00591740      14.09769312       4.72303740      -0.30268646      -0.04007671      -0.41471718       0.20142038      -0.08118901      -0.15266806
C       13.93526170      16.03429091      11.52493763       0.84694287      -0.08476970      -0.30327510      -0.30928627       1.73977053      -0.32133681
C       15.01458830      16.82057074      11.13169113      -0.19998136       0.71892969       0.08925659      -1.76294374      -0.83836579      -0.95427960
N       12.66938859      16.19057629      11.11710931       0.38960709      -0.54320826       0.41521369       0.15918139      -1.46191990       0.28877741
H       14.15033465      15.39626668      12.31972926       0.13019039       0.30221190      -0.11834965      -0.30012110      -1.39246774       1.15309417
C       16.32163585      16.59244373      11.78428281       0.23633964      -0.04176604      -0.35904637       0.64514923       0.46539706       1.45299435
C       14.67443127      17.73644209      10.14205147       0.88712348      -0.24088430       0.73858335       1.11404598       0.89254177      -0.00689693
H       16.64817692      15.52824923      11.83696638      -0.07211508      -0.07379973      -0.09994842      -0.07256750       1.01672256      -0.71071666