960
Lattice="20.592931041497447 0.0 0.0 0.0 20.592931041497447 0.0 0.0 0.0 20.592931041497447" Properties=species:S:1:pos:R:3:id:I:1:momenta:R:3:forces:R:3 energy=-501530.375 free_energy=-501530.375 stress="0.0018311175517737865 -0.0010595436906442046 0.00195068318862468 -0.0010595436906442046 0.0023475964553654194 -0.0020835213363170624 0.00195068318862468 -0.0020835213363170624 4.2244715587003157e-05" pbc="T T T"
C        8.34266125       7.29526598       5.07928945        1       0.33641830       0.61155780       0.11598974      -0.20877314      -0.30754650      -1.02951705
C        8.27773802       6.50795225       6.31544458        2       0.41492951       0.06822158      -0.28407244      -1.19682920      -1.22736406       1.43197155
N        6.95254193       7.60640553       4.62281349        3      -0.46946311       0.43520101       0.05945307       1.06376386       0.31574550       0.20579755
H        8.85200352       8.21060046       5.37770442        4      -0.17467141      -0.08215662      -0.08968166       0.44822085       0.27720019      -0.59438860
H        8.81653613       6.70497033       4.25381594        5       0.06899810      -0.24660712       0.19892344      -0.25414008       0.93182862       0.84204936
O        7.60818638       7.22293164       7.33863554        6      -1.01641717       0.27555837      -0.69955759       0.05680839       1.26394427       0.63319504
H        9.21004075       6.21401565       6.79936765        7       0.11667417       0.20956222      -0.02174835       0.08704187       0.04878898      -0.57313347
H        7.64584001       5.63507787       6.14335112        8       0.13063145       0.24805421      -0.14956508       0.33092779      -0.55241907      -0.23487638
C        6.30036770       7.62866220       6.98217612        9       0.06890847       0.03982294      -1.01635132      -0.97836995      -1.88140512       0.86918455
C        6.24841242       8.34258783       5.67291540       10       0.20039136      -0.07042093      -0.27158128       0.42949012       2.08818436       0.38663077
H        5.87782570       8.22790806       7.79703091       11      -0.26621648      -0.38130072       0.15724741       0.48203546       0.17174089      -0.23282994
H        5.67951605       6.72562786       7.00977009       12      -0.12323348      -0.21037460       0.18521840      -0.08244087      -0.19166914      -0.43436569
H        5.21776978       8.64661576       5.37911720       13      -0.01433256      -0.11758430      -0.24009318       0.68002415      -0.55419761       0.14877366
H        6.74391102       9.29551961       6.05236528       14      -0.14400004      -0.17127494       0.17985436      -0.09593332      -0.44912308      -1.44407010
H        7.16607659       8.17516565       3.80408871       15      -0.00429231       0.06532742       0.00835822      -0.88532758       0.05513765       0.12584868
C       18.37046436      16.50463753       6.94644448       16       0.48642470       0.53370959      -0.63729587      -1.11625171       1.44019890       0.99240839
C       18.58262104      15.64436947       8.18997845       17       1.04494160       0.34188618       0.47014738       0.69417453       2.45364285       0.42777902
N       17.42592878      15.77828403       6.10007996       18      -1.06392115       0.84539714       0.33699498      -1.09278059       1.06495643       0.17015727
H       17.94982657      17.57606449       7.26128793       19       0.11787894       0.04775175      -0.28028562       0.91318440      -2.03210211      -0.48628509
H       19.28458054      16.65657186       6.40750516       20       0.29352013      -0.03368124       0.20687463       0.56763673       0.13084483      -0.19473043
O       17.37903971      15.55575510       8.88069767       21       1.00096810       0.44111837       1.34650617      -0.25697690      -0.73637551       0.10110749
H       19.23748573      16.08847540       8.92742068       22       0.28094049      -0.31405188       0.14181307       0.38821903       0.59895498      -0.19807811
H       19.07476061      14.74423977       7.94558771       23      -0.10286503      -0.11273292      -0.02310759      -0.14870618      -1.59310794      -0.44230342
C       16.39109780      14.94468333       8.09950356       24       0.39508359      -0.82659325      -0.13699313      -0.87477803      -0.57577682      -0.33649269
C       16.09599304      15.66947004       6.78659176       25       0.21838766      -0.27109741       0.78416022      -0.02466917      -0.48195899      -0.64461523
H       15.55170310      14.90023652       8.78607532       26      -0.07332050       0.03076211       0.15640989      -0.46447533      -0.20970565      -0.46447134
H       16.67675818      13.93611089       7.75178667       27       0.21636721      -0.04280485       0.01768619       0.09915817       0.14042568       0.62147659
H       15.48674612      14.97795250       6.12941833       28      -0.16272447      -0.14011949       0.06487947       0.36582083       0.96939242       0.94167435
H       15.53287560      16.62916420       6.97885328       29       0.20656678      -0.03597544      -0.25283547       0.76246905      -0.67153966      -0.40799740
H       17.30696624      16.30344462       5.23192328       30      -0.21019349      -0.02790313       0.10327442      -0.02823569      -0.36253986       0.36860740
C       16.78418980      16.88885837      11.74684345       31       0.89011853       0.92644580       0.39450952      -0.58550566      -0.90836400       0.30549219
C       18.20838346      16.84712720      12.25721975       32       1.76966092      -0.06080228      -0.16226931       0.78986430      -0.12844859       0.00674897
N       15.82714505      17.46749879      12.71728044       33      -0.22598471       0.05708384      -0.09689526       2.47537756      -0.55541641      -0.61675870
H       16.85382156      17.56438366      10.87803113       34      -0.11259267      -0.41208486       0.04853115      -0.26441073      -0.69616902      -0.23071641
H       16.50720662      15.85501480      11.50501991       35       0.08764677      -0.16402878      -0.06849815      -0.09662300       0.46861264      -0.34384349
O       18.62320096      18.22965687      12.51665999       36       0.17823528      -0.18869201      -0.07802992      -0.85903823      -1.43847263       0.97527266
H       18.79793489      16.43574978      11.39031576       37       0.08458234      -0.18954085       0.24180110      -0.27645165       0.65436119       0.96221066
H       18.41348917      16.15927225      13.15458847       38       0.30417542       0.04118973       0.15510844      -0.48539728       1.12791264      -1.04831791
C       17.66710830      18.80622128      13.47297630       39       0.14428669       0.61389715       0.44238417       1.90610111       1.52194297      -0.69058537
C       16.32823131      18.82108684      12.83960888       40      -0.29107224       0.87030090       0.38535243      -2.42318678       0.50067353       1.40998983
H       18.07073980      19.83803577      13.60794476       41       0.12352257      -0.14420048      -0.00089799      -0.52684307      -0.65223700      -0.03695822
H       17.66839424      18.34497706      14.46220339       42      -0.27329023       0.07357226      -0.10823883       0.18315068      -0.47071183      -0.28870565
H       15.56612056      19.29176846      13.47191428       43       0.02249180       0.09454967       0.15258296       0.52610266       0.60244989       0.11171745
H       16.35810303      19.38119626      11.90920733       44       0.05842987      -0.02127748       0.05210687       0.09172902      -0.04438765      -0.36796713
H       14.89650972      17.42677033      12.37790369       45       0.04519836      -0.14965554       0.05287006      -0.79229569       0.09288494      -0.42312232
C        1.42770715      22.57363709      20.72116402       46      -0.01861508       0.23043758      -0.32997876      -0.26044747       0.43847516      -0.81977808
C       -0.01850694      22.98568632      20.32759219       47      -0.32643091       0.79819527      -0.43649140       0.89034212       0.40403730       0.29632130
N        2.16499756      23.67750515      21.27971270       48      -1.65586947       0.00567371      -0.53068177      -0.61511981       1.76134348       1.77421761
H        1.37357855      21.80626825      21.44775470       49      -0.06836321       0.08932737       0.05050170      -0.29788062      -1.26621938       0.69096017
H        2.01788313      22.23761147      19.89611083       50      -0.36744741       0.04479928       0.03700586      -0.13566548      -0.31545508      -0.71336746
O       -0.69641837      23.45263563      21.47051295       51       0.27703843      -1.65788235      -0.77486977       0.53513992       0.77209795       0.22542149
H       -0.65250377      22.20469638      19.99176495       52      -0.22639113       0.25051440      -0.15510181      -0.00509376      -1.13572860      -0.50356483
H       -0.03990873      23.74936151      19.54567504       53      -0.13016430       0.13187333      -0.00927057       0.30464470       0.14705127      -0.04607596
C        0.04372920      24.56573992      22.03928593       54      -0.38277966      -0.60256526       1.08106432      -2.29510355      -1.21504688       1.29928958
C        1.38569294      24.14273047      22.47371568       55       0.19156377       0.05169336       0.40921582       1.36402881      -0.74342227       0.36266002
H       -0.61041520      24.78347656      22.91336810       56      -0.03371614      -0.24211004       0.32116555       0.72350228       0.55890644      -0.56563669
H        0.09477833      25.35491083      21.32318216       57      -0.14768259      -0.26244626       0.33812062      -0.05872535       0.71860945      -0.40003178
H        1.88878383      25.00736896      22.95596510       58       0.02446223       0.17861661      -0.00726522      -0.17251690      -0.68922722      -0.28466704
H        1.28010988      23.27707512      23.20570934       59      -0.13162040       0.05901022       0.08890478       0.14813712       1.05927289      -0.54419094
H        3.08183998      23.44731499      21.66719191       60       0.11582510      -0.33969219      -0.20369652      -0.11151445      -0.53002989      -0.77329433
C       10.07511524       2.13343640       9.47777629       61       0.01192970       0.15904066       0.35573858       1.62030411      -0.79676950       0.49442273
C       10.75297494       0.95532142      10.23506506       62      -0.10469744      -0.71094089      -0.64172235       0.44874126       0.78964204      -1.88346636
N       10.44992276       3.39453463      10.12118526       63       0.02480548       0.35683064      -0.36386822       0.48597628      -2.41187096       0.85576928
H       10.43967363       2.07662005       8.45463223       64      -0.16055782      -0.31024330      -0.31801525       0.01966870       0.07541698      -0.45346913
H        9.03485799       1.89177343       9.45846416       65       0.00128773       0.07038586       0.12550859      -0.85782647       0.42652875       0.19862849
O       12.19380114       1.03403565      10.23999025       66       0.87354898       0.31626810      -0.58120371      -0.47383547       1.38805151       0.24136424
H       10.46362604       0.03383649       9.75880193       67       0.09134369      -0.06008834       0.13962629       0.17954877      -0.32720208      -0.26022106
H       10.38444062       0.94156546      11.21336263       68       0.07543057       0.01429246      -0.00650985      -0.49024588       0.06258796       1.74869299
C       12.52984575       2.31986900      10.86428192       69       0.12341925       0.45352684      -0.12599770      -0.47106183      -0.61959183      -0.61994833
C       11.89737328       3.48851144      10.16484652       70      -0.53324560      -0.17590995       0.53776462      -0.03235239      -0.04017547      -1.52545106
H       13.63192659       2.46725967      10.80379701       71       0.17170849       0.26071869       0.23418468      -0.85911167      -0.43341967       0.61198217
H       12.01044697       2.34656916      11.82048804       72      -0.04481640      -0.10090837      -0.05471790       0.91469508      -0.28181472       0.68432724
H       12.13831076       4.36953746      10.72399995       73      -0.02313702       0.06019351      -0.03625343       0.36141011       0.55942988       0.15445286
H       12.34921402       3.52830511       9.14511141       74       0.30640283      -0.07712993      -0.30971227      -0.20558664       0.31673580       0.30631691
H       10.04649423       4.16482374       9.68834804       75       0.05688701       0.05691892      -0.15205956      -0.74518073       1.35088015      -0.80399442
C        6.96235213       3.81967587      -2.85416549       76      -0.80456521      -0.02797017      -0.14230158       1.00954020       0.05516008      -0.12545581
C        6.35413280       3.42384036      -1.57397051       77       0.29099796      -0.55652596       0.97903161      -2.94683385      -0.17103085      -0.30226281
N        6.43220450       5.14509317      17.38762842       78      -1.37071613       0.21296197       0.46309021       0.82562131      -2.06579566      -1.67193282
H        8.07345849       3.76062938      -2.66945383       79       0.02756513       0.15967104       0.01124088      -0.59224647       0.52547991      -0.42284584
H        6.74261989       3.07640029      16.98692399       80      -0.02871391       0.01025148       0.04919353      -0.26828775       0.05055657      -0.33140385
O        6.62882770       4.34790419      -0.57899560       81      -0.60022541      -0.41098561      -0.37038667       0.33468577       0.57288092       0.95398146
H        6.60595072       2.44696023      -1.25228716       82      -0.15841063      -0.05668050       0.00226131       0.75537074      -0.84590143       0.44679454
H        5.22680108       3.36389734      -1.71791380       83       0.10633346      -0.19624896      -0.07244556       0.96688747       0.07394433       0.07592580
C        6.15628970       5.66589858      -0.89730653       84       0.69926743      -0.45803685       0.51418047       1.21068227       0.88744909       0.43253887
C        6.79320026       6.10620359      -2.22933742       85       0.20063263      -0.19136664      -0.61411844       1.21757627      -0.95283151       1.64050138
H        6.57430140       6.29002664      -0.05565198       86       0.16704797      -0.12355031       0.21989940      -0.92295599      -0.48564640      -0.93862718
H        5.06702130       5.66728535      -0.95130392       87       0.14294731      -0.21168043       0.16775938       0.09430274       0.14746219       0.29319972
H        6.50931439       7.02958985      -2.61602300       88       0.00644861       0.03231469      -0.14441388      -0.55380499       1.73525035       0.04405706
H        7.89561309       6.14278166      -2.03001697       89       0.23820168       0.00602349       0.05757184      -0.53849256       0.04939128      -0.25099903
H        6.81385940       5.34967080      16.46415022       90      -0.15756376      -0.30233939       0.15247030      -0.34499058       0.37494564       0.30528104
C       12.37754877      13.59849779      29.29040100       91       0.08220476      -0.43962639       0.32851417       2.25911188      -0.89922959       1.24457908
C       12.70069201      12.14773710       8.14837603       92       0.26010414       0.74086787      -0.62873567       0.27227825       0.72951967       0.36905986
N       12.78855613      14.55254190      28.26828619       93       0.88855987      -0.03905446      -0.45196438      -0.18434317      -0.42892179      -1.24405634
H       11.35159107      13.72136697      29.56502027       94       0.23855701       0.11871769      -0.04469198      -0.91600072      -0.28867558       0.07618101
H       12.98397607      13.68537188      30.26521062       95       0.31465546      -0.11297028      -0.05858201      -0.89609766       0.27034080      -1.61946702
O       11.95006546      11.90702926       6.97249636       96       0.21536747       0.32466067      -0.31482517       0.62294739       0.79234451      -0.98402023
H       12.49398177      -9.28613137       8.81053984       97      -0.24604033       0.04228125       0.31363876      -0.56438291       0.54480886       0.28476718
H       13.80522960      12.04280871       7.98516333       98      -0.11152253      -0.13889761      -0.04402225      -0.67894953       0.55127472      -0.33664531
C       12.23300720      12.90169082       5.93606111       99       0.42964836      -0.48581805      -0.53942151       0.46053046       0.53435534       2.53120303
C       12.04295300      14.32508811      27.03525433      100       0.57974707      -0.26015029      -0.71612889      -1.73684573       0.41535467      -0.66587991
H       11.57581784      12.65693057       5.17333401      101       0.32386472       0.16423049       0.01195390      -1.08964109      -0.23364252      -1.59667635
H       13.25455990      12.89559188       5.61332364      102      -0.07791574       0.13295228       0.29825713       0.60841346      -0.69305050      -0.13977920
H       12.41286589      15.02392339      26.26807648      103      -0.00058064       0.06069280      -0.05308257       0.10152575      -0.29973853       0.18296774
H       10.90734675      14.53796508      27.04291444      104      -0.24318880      -0.10150210      -0.03983445       1.40073764      -0.26534534       0.63812447
H       12.78543757      15.55270458      28.41497505      105      -0.05576212       0.03373491      -0.22893243       0.00575401      -0.25292623       1.17442417
C        8.85566283      25.49953462      14.57164235      106      -0.41863596       0.13975881       0.06275709      -0.41569164       0.40101114      -1.99031162
C       10.08349208      24.93608014      13.79511517      107      -0.42141812      -0.21769546      -0.45381831      -0.65221888       0.93379790       2.22288394
N        7.60108513      24.82368704      14.11644427      108      -0.69502919       0.53067301       0.44943692       1.08575416      -1.21116710       0.32643223
H        8.91152214      25.46955173      15.63546475      109      -0.00605619       0.04364706       0.13546194       0.23390383      -0.49236169       0.81443232
H        8.71052666      26.55665615      14.32947220      110       0.02994615       0.11021034      -0.25163864       0.41823924      -0.11761506      -0.13625237
O       10.20810301      23.56108327      13.89979953      111       1.00544252      -0.23607848       1.25819324       0.25441465      -1.08296955       0.35780886
H       11.01753141      25.42412619      14.08327101      112       0.14555622      -0.26993628       0.10708925      -0.05219978      -0.22778292       0.21561329
H        9.91520380      25.15647617      12.80561742      113      -0.01550675      -0.19532689      -0.13498310      -0.36129814       0.88015831      -2.57023406
C        9.01368653      22.87268219      13.51765868      114       1.19767253       0.31476996       0.57683756       0.90338308      -1.90538621       1.75990391
C        7.82056603      23.36437622      14.32308484      115       0.23806848      -0.16160083      -0.21490195      -1.78474343      -0.72026765      -1.79784644
H        9.29884976       1.16570339      13.67761240      116      -0.04326726      -0.26599389      -0.06239730      -0.81506550       1.82869732      -0.11726443
H        8.78038584       2.41595573      12.49223128      117      -0.16767183       0.07079046      -0.05359167       0.18333800       0.31408072      -1.22146010
H        6.89304523      22.86948876      13.90596756      118       0.23435576       0.13410584      -0.15846712       0.95221961       0.34505877       0.43088531
H        7.84534365      23.05492744      15.33494938      119       0.12548657       0.20996589       0.04899061       0.37491274       0.12290590       1.10910797
H        7.57277078      24.80755404      13.08502196      120       0.03992741      -0.01310798      -0.04794968       0.00723919       0.98345679       0.58661121
C       23.06795384      -4.35064343      14.87011922      121      -0.59322211      -0.57395145       0.39462675       1.08444190       2.65169787       0.83709836
C       22.28761511      -3.70622145      16.01661729      122      -0.13344888      -0.20403746      -0.43850914      -1.14756799       0.44994706      -0.44754094
N       22.16182513      -4.64253039      13.81887210      123      -0.38213973       0.60063539      -0.02939136      -0.20180905      -1.46773922      -0.51103216
H       23.82359327      -3.50400010      14.56765536      124       0.03467723       0.04289236      -0.06999700      -0.88816607      -1.58937216       0.42255312
H       23.59276805      -5.20404953      15.28389740      125       0.10001687      -0.04310357       0.11452360       0.00490493      -0.34572443      -0.50613666
O       21.71741040      -2.44798770      15.51499107      126       0.74566487       0.05451361       0.82344274       0.37292030      -1.48409331      -0.28524759
H       22.83732422      -3.55344691      16.95275206      127      -0.03634934      -0.00453592       0.03981364       0.08595294       0.33910131      -0.55348915
H       21.39985102      -4.30452254      16.25961941      128       0.05374655       0.02366990      -0.00723412       0.37172765      -0.33039570       0.10991691
C       20.85969652      -2.80926884      14.41062755      129      -0.70217073      -0.40039746      -0.69311610      -0.99716336       1.97815669      -0.41996467
C       21.51115437      -3.51798249      13.21393439      130       0.25294485       0.03637378       0.16967725       0.20123196       0.87780368       0.98960179
H       20.37677362      -1.85124254      14.10486976      131       0.08076498      -0.02879044       0.30067113       0.57536054      -0.76577067       0.15143524
H       20.04986118      -3.45746683      14.75166426      132      -0.01549321       0.03376588      -0.12782073       0.07419342      -0.08212859       0.26953369
H       20.71868930      -3.81053662      12.51860565      133       0.02604728       0.01638315       0.32423339       0.31927410      -0.09281076       0.28595233
H       22.18452120      -2.83355723      12.66585915      134      -0.15072593      -0.01228091      -0.11161444      -0.00640839      -0.20196587       0.19865912
H       22.49356454      -5.34075025      13.18789787      135       0.42426306       0.10663798      -0.20176257       0.25393665      -0.15503420      -0.38344574
C        3.57180441      -1.98427292      19.38715631      136       0.63870272       0.08964726       0.52755121       0.59594333      -0.76623994      -0.58922279
C        3.45819352      -0.49874251      19.77160413      137      -0.37730432       0.54558950      -0.44479819       0.20419508      -0.00282049      -0.63976896
N        5.03720479      -2.31415654      19.32282793      138       1.10365219       0.10032048       0.00605274      -1.54653645      -0.01843303      -0.68210584
H        2.96549532      -2.60764796      20.09889936      139      -0.21650397       0.20436316      -0.07620575       0.86399072       0.44645834      -0.13019261
H        3.13184489      -2.28350545      18.37846083      140      -0.12239907      -0.20344027      -0.11286425       0.52063257       1.11934912       1.15913272
O        4.21348842      -0.09453164      20.91991254      141       0.65552094       0.08351992      -0.57738071      -0.36164051      -1.00843942      -0.79731518
H        2.43842011      -0.30407838      20.04041649      142       0.46450512      -0.01456282       0.06557801      -0.39902392       0.17442037      -0.17073408
H        3.78398196       0.12788524      18.91706864      143       0.11356297       0.10726517      -0.04490841      -0.25907850      -0.33960569       0.35935384
C        5.54522693      -0.57401396      20.84189291      144       1.06664278      -0.17678158       1.22115950       0.23720327       0.36179993       0.69628716
C        5.64027081      -2.06769006      20.59212715      145       0.01231230      -0.55676399       0.74891250       0.09257641      -0.59115243       1.62834048
H        5.96591853      -0.34709908      21.81971487      146       0.13577196       0.02023577      -0.13639056       0.14686280      -0.09029703      -0.32555783
H        6.08477842       0.00778986      20.06261441      147      -0.10924733       0.02284290       0.02048866      -0.10700208      -0.55977821       0.37641856
H        6.72250585      -2.31427728      20.62865188      148      -0.18295513       0.01133654       0.11644844      -0.67790288       0.00299457      -0.30684713
H        5.11308061      -2.70507959      21.42674473      149       0.04193944       0.32288780      -0.00951253       1.14125562       1.54286575      -1.20554662
H        5.17866417      -3.25488289      18.99294968      150      -0.04265304      -0.08635115      -0.02345940      -0.11678869      -0.57348847       0.25442401
C       12.67296903       2.49130525       5.75571696      151       0.74402264      -0.15317736       0.26096706       0.41681266       1.89961326      -1.44341791
C       11.68785705       1.67660433       4.95372968      152      -0.71704720       0.55147605       0.21898673      -1.59446025       0.14419343      -0.15258656
N       12.44139117       3.97685599       5.49241064      153      -0.17870111      -0.68425109       0.25945266       0.83779657      -2.42875719       3.25193834
H       12.47481163       2.34087232       6.79186495      154       0.15692242       0.06117058       0.10114083       0.06894216      -0.13795662       0.85677212
H       13.72687639       2.36892307       5.53193642      155       0.14909847       0.20386502      -0.23140276      -0.21417381      -0.73658687      -0.01660566
O       10.32861518       2.00055144       5.35435747      156      -0.45383631       0.28379539       0.37968931       0.17185111       1.02442002      -0.18013135
H       11.67485917       0.60183579       5.02331844      157       0.07081762       0.07212324       0.13380990       0.67845255      -0.29466879       0.36475465
H       11.69445984       1.92458231       3.90252305      158      -0.04040043      -0.11451389       0.10960370       0.70385325       0.07073565      -0.53784311
C       10.08799569       3.41826400       5.12610168      159       1.00163930      -0.40641508       0.34095172      -0.88747144      -1.09189045       0.97665924
C       11.11656001       4.23052846       5.85820060      160      -0.59712102       0.49073447      -0.59218682      -1.80155957       1.72296047      -0.10045780
H        9.06420006       3.62722674       5.51312742      161       0.27152551      -0.28177331      -0.28235376       0.77393693      -0.20925525      -0.47118461
H       10.13222100       3.64695557       4.06455666      162       0.01241683       0.00806545       0.11970970      -0.11291978      -0.18548839      -0.29335415
H       10.86331906       5.28618284       5.67648413      163       0.27292271       0.03815019       0.09133596       0.18303519      -0.11812378       0.12950189
H       11.00902400       4.05919226       6.90679083      164      -0.09028963       0.12149980      -0.02906881      -0.20142409      -0.06479839       0.90689826
H       12.56570860       4.23516378       4.58250999      165      -0.09506723      -0.02867065       0.00347418       0.91425526       0.29223502      -3.02968693
C        3.12243171       5.30636123      17.98856707      166      -0.81997336       0.12818735       0.08208520       1.00743878      -0.79492342      -0.19175339
C        3.57886374       6.58625450      17.38186328      167      -0.10375288       0.06317838      -0.09146556      -1.56956649       0.72269309      -0.13844758
N        2.46095441       5.49150292      19.23415862      168       0.36225844      -0.83140707      -0.87333158       0.33402759       0.14081511       0.69058585
H        2.56229739       4.73554501      17.25428697      169       0.11584881       0.03225930       0.05646658      -0.43512309      -0.29719940      -0.29721162
H        4.02159361       4.77922860      18.22818195      170      -0.14410800       0.13100468       0.16025142       0.43199241      -0.63098490      -0.44559646
O        2.49649332       7.50083034      17.22120270      171      -1.20478896       1.09786513      -0.31952480      -0.60256445      -0.14951940      -0.88041842
H        3.95933743       6.46715453      16.37739790      172      -0.14209947       0.16336354      -0.09885763       0.49668664      -0.09602281       0.09310932
H        4.23029368       7.06549659      18.06232665      173       0.01451132      -0.17826480      -0.37908110       1.34203601       0.37085849       0.51402813
C        1.63411974       7.63073149      18.32743485      174       0.28189990       0.00680130       0.51002623       1.81213534       0.29941773       1.66210508
C        1.28876367       6.27392815      19.00180247      175      -0.38228041      -0.62489654      -0.18831568      -1.21866083       0.71189964       0.30127493
H        0.84146003       8.25742822      17.96067080      176      -0.01003934      -0.00837516      -0.18710049      -0.76094013      -0.32939687       0.17620805
H        2.17877804       8.26684312      19.11852749      177      -0.07160989      -0.20345368      -0.12137097      -0.66150343      -0.86108673      -0.77002335
H        0.72278317       6.45388388      19.91250895      178       0.00114107      -0.13358824       0.06361082       0.30146497       0.35797429       0.35590643
H        0.57310727       5.70514021      18.43814766      179       0.01959470       0.06475655      -0.21226424      -0.57214665      -0.23751333      -1.08706009