1024
Lattice="22.637660498749714 0.0 0.0 0.0 22.637660498749714 0.0 0.0 0.0 22.637660498749714" Properties=species:S:1:pos:R:3:momenta:R:3:forces:R:3 mol_liquid.pdb=T energy=-539614.125 free_energy=-539614.125 stress="0.0009816784877330065 0.00028510147240012884 -0.0004167407169006765 0.00028510147240012884 0.0038275292608886957 -0.0003255298070143908 -0.0004167407169006765 -0.0003255298070143908 0.0012348804157227278" pbc="T T T"
C        1.96002010       1.09295197      -6.01588901      -0.27030567       0.60695613      -0.62655654      -0.07920282      -0.03172450      -1.02677703
C        2.59348195       1.36055798      -4.73721414      -1.40399693       0.98763947      -0.04721456      -0.95280802      -0.63381952       1.82069111
C        2.65803544       0.70102213      -7.08475542       0.03240574      -0.99547599      -1.23444310      -1.89913344       0.22962405       0.65302312
H        0.85648377       1.13275440      -6.05542895      -0.07262155       0.16488554      -0.01174291       0.77939260       0.31835783      -0.11377272
C        2.03614548       2.28424328      -3.81903362       0.40982374      -0.03000137       0.29979892      -0.13541201      -0.32407326       0.49496186
C        3.53935662       0.42559981      -4.27559978      -0.75569395       0.23523722      -0.08859424      -0.21575080       1.38273096       0.97529417
C        2.43154371       2.27488056      -2.47250538      -0.37980675       0.15528663      -0.80035412       1.50060534      -0.19484240      -0.04171361
H        1.19023196       2.94872655      -4.08241725       0.24485631      -0.18294501      -0.02429940       0.73332739      -0.51602292      -0.14029083
C        3.48555016       1.46019261      -2.00653444       0.63376298      -0.43752228       0.45756148      -0.86981952      -1.16747081      -2.97715569
H        2.04814913       2.96346448      -1.75411429       0.11665598      -0.05622768      -0.18812310      -0.64467973       0.42614138       0.10696684
C        4.01285709       0.53101659      -2.96447593       0.63600898       0.19776046      -0.03061057      -0.03003687       0.92045653       1.01084030
H        3.78670014       1.38683973      -0.98209266       0.05369422       0.13035801       0.25337947       0.13836214       0.33343107       0.28399140
H        4.83885841      -0.06342600      -2.61214007       0.26587667       0.01012789      -0.02044784      -0.03801722      -0.52922773      -0.12155917
H        3.81754672      -0.37057935      -4.93607745      -0.03053157      -0.04368576       0.00954510       0.35150769      -0.22454327      -0.03375294
H        2.14429191       0.48598484      -7.98466614      -0.12697109       0.10164083      -0.08897140      -0.38056910      -0.15294743      -0.69045043
H        3.68696081       0.52249139      -7.09279167       0.13142684       0.23589558      -0.10796670       1.44410121       0.09895728       0.16369487
C       22.29674885      59.87234476     -25.38437742       0.34893947      -0.25465717       0.50559480      -2.70606351      -1.00553453       0.64553088
C       21.22041504      59.75047181     -26.42714580       0.40225458      -0.36295735      -0.21423499       0.54411447      -1.48176622       0.31255925
C       22.15791984      59.11687693     -24.27966145       0.55899196      -0.48423142      -0.13117560      -0.24680643       0.06281024      -0.87583768
H       22.96061168      60.69988864     -25.42106557       0.06917654       0.13918637       0.14306606       0.69846642       0.47074285      -0.08992065
C       20.59463618      58.51518317     -26.64131569       0.28012545      -0.24936488       0.11027229       0.11093654      -0.19828528      -0.94772720
C       20.79029292      60.80238079     -27.20135438       0.66461512      -0.72849579      -0.51565272       1.79755354       3.33926439       1.27640557
C       19.63057137      58.42782535     -27.63913157       0.13756277      -0.16043309       0.48157168      -0.04458766      -0.27324063       0.16572091
H       20.88873339      57.55174131     -26.21431923       0.12301731       0.01426572       0.13885709       0.13856655       0.68946791       0.22848599
C       19.19607818      59.55170326     -28.34842103      -0.14879085       0.47541285       1.17023574       0.65032548       0.25218409      -0.13924402
H       19.30390045      57.40505842     -27.84327244       0.18610238      -0.01190739      -0.07658383      -0.39874887       0.62005228      -0.18783586
C       19.81976554      60.79429677     -28.16234798      -0.00474141      -0.13139589      -0.51455736      -0.74228281      -1.75000501       0.52616262
H       18.44710954      59.47989937     -29.09662098       0.03897595       0.06063627       0.58412976      -0.55400187      -0.29160690      -0.49567395
H       19.53105918      61.68743228     -28.67911668      -0.10159114       0.28236936       0.04591225      -0.05926321       0.09027081      -0.11362139
H       21.24607774      61.79817219     -26.91562686      -0.54963439       0.41729912       0.27207257      -0.41463703      -1.08689046      -0.64436662
H       22.75720704      59.30406935     -23.43772685       0.07968810      -0.10044306      -0.17436675       0.87636220       0.05225647       0.88767862
H       21.40941501      58.31889011     -24.13631445       0.02305830      -0.12020222      -0.10561326       0.39035666       0.66289186      -0.42844349
C      -26.72634710      -0.64373919       4.15805144      -0.44368889      -0.00094929      -0.71615631      -0.12256364      -2.42799854      -4.10196781
C      -26.16533258      -0.39640698       2.74837679      -0.06698961       0.21518823       0.72565482       0.04033071       1.04191220       2.04492092
C      -26.54480286       0.04870577       5.22281757       0.61129657       0.04109589       0.72695746       0.92004448       1.69207013       0.67125130
H      -27.30753212      -1.57028032       4.24222980      -0.21841783       0.31336549       0.14665394       0.36345488       0.50970292      -0.02836430
C      -25.86061193      -1.47815404       1.88832440       0.35248347      -0.13668946       0.29109928      -1.59002912       1.98834467       2.32429838
C      -25.76981492       0.92569237       2.43213150      -0.95674285       1.08986173       0.17018418       0.14336753      -2.24209690      -0.68125033
C      -25.29009839      -1.20792182       0.70469087       0.19773416      -0.01088723       1.08837986       1.01548243      -0.43404472      -2.48327827
H      -26.13580733      -2.42441596       2.26918918      -0.06708077      -0.15341626      -0.00765047      -0.04673155      -0.95085287      -0.09977325
C      -24.87595980       0.07666180       0.38249361       0.33769196       0.63456070       0.58595982       0.59430611       0.24479297      -0.70011902
H      -25.11252093      -1.98650252      -0.04790603      -0.18361159       0.05794229       0.07121730      -0.02920449       0.25651747       0.55470496
C      -25.09425424       1.12101406       1.24869734      -0.53105046       0.42745071       0.06214942      -0.01929989       0.20841387       0.48156768
H      -24.32324068       0.27137076      -0.53665411      -0.04384674       0.10471288      -0.03430667      -0.26799721      -0.25005308       0.21737298
H      -24.70643050       2.10845983       1.13246031      -0.05680288       0.01343024      -0.13627390       0.25311869       0.42550641      -0.74985129
H      -25.85593980       1.77454894       3.05391318      -0.03644298       0.32364547       0.11383730      -0.44183806       0.32459238       0.89739442
H      -26.95188639      -0.36703608       6.08560960      -0.23935572       0.09474531       0.39564703      -0.57116187      -0.08087839       1.62430525
H      -26.01882712       0.99176709       5.22438525       0.29000788       0.24062693       0.05117708       0.06750531      -0.01031306       0.21785876
C       35.84444843      -6.41170018      17.26239476      -0.38813326      -0.32264782      -0.72731436      -0.06642856       1.07125270      -0.32176995
C       35.35343481      -5.40986585      18.27690279       0.10870952       0.12847179      -0.68908952       0.78917176      -0.88244987       1.63258588
C       35.49661660      -6.35459315      15.97884645       0.93573011       0.83885405      -0.65450369      -0.47944939       0.51003230       2.54163456
H       36.65908752      -7.08881065      17.53083183      -0.00556538      -0.08539534      -0.23453556      -0.35510641       0.35422435       0.33789584
C       34.25477721      -4.53988850      18.19672606       0.11507177      -0.72270535      -0.32409131      -0.74827862      -0.38910320      -1.77821314
C       36.09688493      -5.33378106      19.47579647       0.95358242      -0.96897053      -0.05867099       0.76506543      -0.13665266      -1.18779063
C       33.85301331      -3.68548523      19.22238785      -0.21396894       0.47635340       0.56387565       1.20152879      -0.68840480       0.11124700
H       33.70654080      -4.56407589      17.22832721       0.05229233       0.02942248       0.23166987       0.19387305       0.13055098       0.98335624
C       34.69360376      -3.66190854      20.36294629       0.62331500      -0.00146683      -0.11525169      -1.02590001       1.18662524      -1.43049741
H       32.98272112      -3.03028646      19.09234282       0.15891044      -0.09015152      -0.08146362       0.45440048      -0.41130918       0.29269314
C       35.86170718      -4.34877966      20.41195337      -0.34259582       0.28290180       0.02139689       0.99500638      -1.84013820       1.15798056
H       34.50833517      -2.98238259      21.12624618       0.02448987      -0.07221979      -0.20451504      -0.64646631       1.08013725       1.28028309
H       36.57547195      -4.36631223      21.27048121       0.00222176       0.10434873       0.00761545      -0.96957910       0.52632731      -0.65638173
H       36.96700990      -5.96695549      19.66958352      -0.05179415      -0.24774553       0.15958423      -0.41190916       0.09242211      -0.48482358
H       35.93931845      -6.92315762      15.26512712       0.08832257      -0.16135133      -0.06637563       1.15127182      -1.71109080      -1.86695266
H       34.70483133      -5.74627644      15.68518444      -0.11848468      -0.15860752       0.28723594      -1.04778814       1.08846605      -0.67411876
C       -7.15666708      15.08252190      21.29126924      -0.16775327      -0.29176373      -0.44339098      -2.26286387      -0.29822528       0.83714807
C       -7.45277595      14.17445001      20.18571152      -0.45238748       0.12063723      -0.09793872       1.39157093      -0.18009177      -1.67687893
C       -8.01813427      15.49102222      22.24981559       0.69218947       0.02047514      -0.28363203       0.55112404      -0.79226822       0.67805755
H       -6.17612935      15.41374529      21.21652784      -0.40872068       0.23241312       0.13068075       1.45965064       0.89004266       0.43829262
C       -6.38972370      13.82318347      19.28161974       1.59987891       0.24740666      -1.41283884      -0.99892861      -0.33939484      -0.71081066
C       -8.72439306      13.76028383      19.82870285       0.47365397       0.34122123      -0.34762497      -1.21945071       0.72312796       1.90215182
C       -6.66332297      13.00675108      18.18741291      -0.18514522      -0.47738683      -0.47200514      -1.76391089      -0.50379056      -0.12013817
H       -5.36737878      14.17203026      19.23809996      -0.00944326      -0.29081573      -0.14142239      -0.05938037       0.21780400       1.02481484
C       -7.98776400      12.52537427      17.94192916      -0.07944714       0.21323243       0.06114272       0.96416199       0.54622811       0.62958097
H       -5.89691849      12.71520557      17.46851269       0.14912097      -0.08186931       0.10559267      -0.06856059       0.21690968       0.43207026
C       -9.03501804      12.94003873      18.77254200       0.16190135      -0.57105220      -0.09580790       0.29168966      -0.37397930      -0.62005371
H       -8.10834940      11.85741161      17.11163863       0.25502811      -0.06027650       0.08159239      -0.38113719      -0.08072209      -0.19361077
H      -10.09388220      12.68568000      18.64250301       0.05900860       0.23809840       0.07409176       0.67708129      -0.13396586      -0.24234876
H       -9.54945431      14.11790016      20.48870281      -0.07718561      -0.45632676      -0.01054428       0.67366451      -0.41351357      -0.69251949
H       -7.65239298      16.19132015      23.06356207       0.15072374      -0.22143682      -0.04274770      -0.68170440      -0.90784156      -1.20942092
H       -9.00718893      14.95839849      22.39043691      -0.13505932       0.18957377      -0.25782165       1.22948551       1.10607958      -0.23475261
C      -15.02207228       4.22339443      21.50100310      -0.47529945       0.69987679      -0.17417441       1.36416197      -1.00980377      -0.89656287
C      -13.48897326       4.12720661      21.36794197      -0.18853592      -0.23296924       0.29042943      -2.10087299      -2.26448011      -1.03577971
C      -15.94470798       3.49042050      20.85668167      -0.48353830       0.34039705       0.66422155       1.28993368      -0.10943197      -1.08755779
H      -15.27465413       4.99154858      22.17790596      -0.16565355      -0.06089435      -0.19824832      -0.64874458       0.66264933       0.75951397
C      -12.71279815       4.93694583      22.13867668       0.30374757       0.01976089      -1.17112852      -0.03081404       1.58115935       0.57144201
C      -12.87656586       3.12372357      20.54174944      -0.93776170       0.17871072       0.42232659       0.52901286       0.75952911       0.20959227
C      -11.32514011       5.01923229      21.97918833       0.79737514       0.78381884      -0.25577924       0.75196612      -0.46396697       0.75219196
H      -13.23470445       5.57931549      22.86489106       0.23407714       0.13743840       0.10789996       0.43933767      -0.21058257      -0.41863501
C      -10.68116132       4.08587847      21.20043334       0.38376748       0.45572012       0.09167432      -2.53156137      -1.50707412      -1.00381660
H      -10.67638319       5.66956693      22.58560999       0.11906733       0.00333406      -0.01260205      -0.76232332      -0.06224269      -0.31489712
C      -11.48394465       3.09482664      20.49871056       0.67399623       0.10119227       0.80685149       0.31709862       1.26930666       0.17038080
H       -9.63408504       4.06647044      21.11580076      -0.00437844      -0.12990242      -0.27821741       1.03506684       0.03973724      -0.15877795
H      -11.01611007       2.40699164      19.80463736      -0.06365502      -0.03533736      -0.02381815       0.15753968      -0.07978863       0.27824759
H      -13.44301306       2.42244238      19.88995025      -0.15277826       0.02447450      -0.08912233       0.40787089       0.72795558       0.78882051
H      -17.02035582       3.62929937      20.91820504      -0.10539858      -0.13044944      -0.31378473       0.29695687       0.03633845       0.26031274
H      -15.59880690       2.78241737      20.05132474       0.03769495       0.25461338      -0.10831728      -0.54549748       0.63442802       1.09903109
C       40.43748704      38.42630632      13.15813011      -0.24278935       0.12861973      -0.20938307      -1.27688646      -1.53172898      -2.29482460
C       41.26628115      39.40484035      13.75804617      -0.19360631      -0.28497988      -0.48240251       2.87412715      -1.08716393       0.16909008
C       40.78302658      37.55555932      12.16761305       0.31303621       0.27268162       0.18379444      -3.23865628       0.55510736       2.38129830
H       39.35930639      38.48137528      13.36416934       0.08667350       0.15008367      -0.10875681       0.52278531      -0.10674258       0.19024435
C       40.83733409      40.63505735      14.08967261       0.20757807      -1.28807084       0.22231351      -2.43351460       2.71084309      -0.49703285
C       42.64890057      39.12656207      13.88457526      -0.29585899       0.52462920       0.18880323      -0.49873677       1.30736160       0.45888203
C       41.62649609      41.66483411      14.57688685      -0.43933672      -0.39131576      -0.37055411       0.60274637      -1.40207911      -0.15092978
H       39.82294457      40.96113603      13.76607680       0.21443547       0.23126347      -0.11099645       0.50637984      -0.61900663       0.59680760
C       42.96555052      41.40829776      14.80492923      -1.51942776       0.19157469      -1.04385780      -1.26107359      -1.24678159      -0.55607700
H       41.17271778      42.59771337      14.73803616       0.11506447      -0.07985223       0.02810237      -0.34788436       1.10646176       0.33097124
C       43.44582668      40.14798439      14.42442156      -0.24571028       0.31613465       0.03435724      -1.31569290      -0.40421963      -0.42142439
H       43.53198683      42.13378272      15.31087952      -0.11446537      -0.03624436      -0.06706704       1.05746484       0.61822861       0.27485609
H       44.44645149      39.94569956      14.54392968      -0.02493112      -0.02653076       0.06045582       2.20487714      -0.42211458       0.34485051
H       43.01018424      38.15579094      13.53318000      -0.09224631       0.00635039       0.09397479       0.21923497       0.55567777       0.45255908
H       39.91320648      36.93007169      11.91545930       0.15746957      -0.29560468      -0.21364275       0.93755436       0.11177427      -0.57623345
H       41.72031484      37.41517569      11.74130565       0.01906344      -0.13456179       0.06233317       1.44574261      -0.20745781      -0.58489007
C       36.70102441       8.86045458      -8.13294376       0.64545915       0.02247640       0.47690068       1.21991515       0.73729438      -1.88728237
C       35.92742508      10.06813488      -7.76700538       0.17318678      -0.80401897       0.67328395      -0.26528254      -0.27567261       1.41130686
C       36.55237275       7.56829526      -7.90919822      -0.34790710      -0.67214328       0.17646802      -2.69462466      -0.12636489       3.06225967
H       37.54145302       9.08154116      -8.81965831       0.09287369      -0.17633605       0.07226969      -0.60292584       0.13768212       0.27161232
C       34.86959533       9.99605906      -6.84789155       0.34356566       0.79943334       0.29960550      -0.68618250      -0.94843960       0.84193414
C       36.27880767      11.33270379      -8.24524051      -1.34474950      -0.15609494       0.64974822       0.95058870       0.03192018      -1.12913883
C       34.18405651      11.13120378      -6.36805705      -0.09847189       1.07646970       0.50473073       1.01598883       0.53399891      -1.91505790
H       34.56680652       8.97699112      -6.47005185      -0.08140007      -0.10909765       0.16305923       0.33696911       1.32018280      -0.48286381
C       34.57374842      12.38885757      -6.88965797       0.38977662      -1.02665242      -0.08311923       1.62380552      -1.58786201      -1.11128640
H       33.28041032      11.04538405      -5.78540988      -0.10128181      -0.08212803       0.20003818       0.32687113      -0.18693519       0.29416692
C       35.62725351      12.48736796      -7.85740252      -0.16570120       0.24362243       0.08803757      -1.34318292      -0.91296244       1.38679862
H       34.16384453      13.29413740      -6.58101209       0.16867633      -0.19311814       0.10605332      -0.99232268       1.19740009       0.55703324
H       35.90659097      13.43471357      -8.28420580      -0.09348363      -0.14656140      -0.10544228      -0.06119002       0.12381813       0.08360972
H       37.10013536      11.42070614      -8.99211503      -0.08460480       0.02272227       0.05735187      -0.63648272      -0.17848484       0.70066452
H       37.11154107       6.80792406      -8.37984555      -0.25226487       0.04494946      -0.09083182       0.72076857      -0.45128319      -0.35714251
H       35.80761891       7.21349065      -7.08203618      -0.23669400       0.08636011      -0.01383176       1.19989812       0.49322391      -1.82561719
C        7.96078440     -30.40639394      10.60830579       0.72059015       0.38490971      -0.59701893      -0.92688406       0.42651939       0.73553193
C        8.60884397     -29.83202932       9.45258438       0.16336274      -1.11094850      -0.48539926      -0.42607203       2.44954062      -1.34108198
C        7.30853695     -31.57075603      10.63357352      -0.47409012       0.86588219       0.71017755       0.34060070       1.22371364       1.07079864
H        7.95365554     -29.70140798      11.45410124      -0.18985606       0.14056729      -0.31166277      -0.39647597      -0.59312522      -0.25465623
C        8.29639773     -28.47214486       9.02547285       0.02135800       0.11028769      -0.16998206       0.56019634      -0.79515028       1.56500673
C        9.46757743     -30.57289728       8.68893720       1.05329498       0.23034458      -0.17909635       0.43259984      -2.92061853       0.66310275
C        9.01181014     -27.92773543       7.98346353       0.25654733       0.05235407       0.20032637       0.37530792       0.18688667      -1.71381187
H        7.61081068     -27.83898384       9.60577990       0.02670215       0.15305273       0.13641517       0.28517291      -0.48543531      -0.19380052
C        9.82652364     -28.74471958       7.20402861       0.52843015      -0.59079050      -0.99782932       1.51955259      -1.00587463      -0.35723838
H        8.99951931     -26.91840421       7.53524207       0.28845697       0.08587616       0.29711095      -0.77882719      -0.30667126       1.11584854
C       10.07221471     -30.08875780       7.55256559       0.62347585       0.71347126      -0.43935883       0.50188625       0.30010387      -2.03498483
H       10.37792906     -28.31190688       6.34217668       0.02941087      -0.34521651      -0.12231591      -0.58991396      -0.35678631       0.69463861
H       10.67830807     -30.76463829       6.84751669       0.04219302      -0.12559767       0.20389980      -0.85895765       1.20944548       1.45727909
H        9.63103838     -31.65187323       9.04767773       0.00036665       0.19214733       0.05052261      -0.15091495       1.88023281      -0.80517375
H        6.72244372     -31.74415896      11.53439400      -0.05883107      -0.06090150      -0.02664979       0.19645318      -0.53913701      -0.31748521
H        7.35362640     -32.26442003       9.82518273      -0.13336133      -0.03794087      -0.19049257      -0.26303726      -0.31336862      -0.33801511
C       26.05965476      34.67127936      -3.51740258       0.19532099       0.40258061      -0.18827869      -0.08072525       0.25638434       0.02017380
C       26.73181961      35.41292230      -2.41061673       0.34212074       0.09524137      -0.02138098       1.03446913      -0.26992807      -0.85509086
C       24.82103113      34.97328062      -3.90935474       0.12510251       0.54568193      -0.39464509      -0.31299323      -1.96025145      -0.63509881
H       26.55716022      33.79059231      -3.98545617      -0.04823363      -0.08024370       0.06694432      -0.26469782       0.78752995       0.75357002
C       28.11291229      35.57597463      -2.34900998      -0.02915497      -1.31889505      -0.34801306       2.25330067       0.25421977      -1.21263099
C       26.01043820      35.86427768      -1.32252112       0.35094065       0.05872778      -0.45043845      -0.09992008      -1.14473689      -0.92247069
C       28.73563935      36.10275883      -1.22920803      -0.00521787      -0.82473720      -0.63105833      -0.74748302      -0.41770732       0.51451743
H       28.85965363      35.42004309      -3.18148256      -0.04439332       0.20123963       0.10260675      -1.44669795      -0.45222759       0.63878322
C       27.93489618      36.51950434      -0.17122116       1.78616765      -0.35574944       0.12620856       2.05300784       0.56091249       1.14889777
H       29.81410755      36.08042816      -1.09967163       0.18402499       0.44072197       0.17306566      -0.20267543       0.30076244      -0.35430664
C       26.58358104      36.42429210      -0.21688200       0.37992911      -0.64814919      -1.05233166      -1.20180738       0.09464452       0.11906604
H       28.45420938      36.90495187       0.70873459       0.13497876      -0.08687738      -0.09243362      -0.34653616      -0.02734191      -0.17514992
H       25.89459307      36.73106522       0.55634685       0.26076115      -0.37478407       0.19001204       0.45486456       0.08467173       0.34671617
H       25.01757042      35.52440310      -1.34459506       0.07146277      -0.00891016      -0.24014488      -1.45563209       0.26992977       0.28350922
H       24.27952408      34.16436737      -4.46475558       0.04449375      -0.18108122       0.13365992       0.47393912       1.22728777       0.02786869
H       24.23425032      35.81771279      -3.60654252      -0.12315226      -0.04145376       0.26039071       0.04204051       0.19780612       0.27419102
C       -8.54846792      28.46886809       5.27913164       0.45196672       0.15222971      -0.22385912       0.31608286      -1.32559144      -0.91724718
C       -8.52458874      28.89872570       3.84786847      -0.90881455       0.96996577       0.24725994       0.13472667       0.33763051      -0.43021703
C       -8.59088621      27.18949658       5.66121464       0.10273476      -0.77633409      -0.11612094       0.14820501       0.76845610       1.47677374
H       -8.46361592      29.22382782       6.01135108       0.07380370       0.17462245       0.08242775      -0.16526991       0.89030004       0.63775921
C       -8.16039662      28.10266045       2.75653574      -0.41549369      -0.08988433       1.01870963       0.56539369      -2.01238894      -0.25620607
C       -8.89259302      30.19511871       3.48737091      -1.30049723      -0.12217819       0.39796637      -0.64351481       0.63736141       1.84269702
C       -8.20387116      28.53789417       1.44123144      -0.21442770       0.30075048      -0.74955397       0.50607020      -0.46598077      -1.52919936
H       -7.80924670      27.04989605       2.85230870      -0.03239178      -0.18875698       0.21885027      -0.40846476       0.88608551       0.38267717
C       -8.55530160      29.84293507       1.12990671      -0.22998400       0.55906622       0.41500844      -0.44170135      -1.16475904      -0.32372108
H       -7.96179577      27.87146513       0.57274728       0.14897086      -0.02264746      -0.00478372      -0.09713057       0.37398121       1.27214456
C       -8.93663974      30.61313752       2.17375258       0.10537389       0.26038121       0.31178841      -0.72548449       2.43396711       0.19947241
H       -8.72019408      30.21522654       0.12736406       0.13982898       0.17663490       0.23851751       0.42275485      -0.22476272      -0.07553104
H       -9.31947818      31.60374707       1.88184237       0.35504932      -0.23530204      -0.35249368       0.22852264      -0.31245613       0.72637546
H       -9.22747914      30.87534249       4.31273978       0.09335373       0.12003884      -0.04115990       0.31712639      -0.55088758      -0.97794449
H       -8.58328189      26.79726536       6.70369626      -0.05925719      -0.25186935      -0.06801804       0.04440193       0.91387612      -0.84966052
H       -8.58436431      26.43633342       4.94527243      -0.13618615      -0.09065211      -0.21392612      -0.14341979      -1.21395802      -1.21307611
C       43.61382369       0.07031799      33.48610830       0.00454810      -0.36460995       0.01943603       0.48692378       1.88201213       2.27214146
C       43.87579602       0.84807712      34.73450164       0.37134135       0.11065439       1.39221314       0.14792734      -2.50737190       0.29255292
C       43.34444365       0.45515921      32.27642478       1.02141610       0.19144226       0.00533789       1.05920935       0.06711087      -1.98465729
H       43.68063274      -0.92239314      33.70267259      -0.15742445       0.07059558      -0.15019820      -0.01328725      -2.89239502       0.14990310
C       44.04683220       0.11525318      35.93774688       0.39878295       1.14868918      -0.39751002      -0.33434650       0.22619039       0.79207313
C       44.03622360       2.19262672      34.73017294       0.10290497       1.45013824      -0.50237653       0.05193779      -0.02860811      -1.46653104
C       44.21098778       0.83409236      37.15736524       0.80481823      -1.43904859       0.67257167      -0.22476904       0.77677000      -3.87984324
H       44.02681684      -1.00820638      35.90844444       0.08834662      -0.26557217       0.03955109      -0.13777955       1.31682980       0.14941469
C       44.27329892       2.23895465      37.07697711       0.46926351      -0.71543109       0.36934956      -0.35432643      -0.82029366       2.69658518
H       44.25182539       0.33970829      38.05619093      -0.22814817      -0.21088251      -0.17289687       0.26569146      -1.03433800       1.90556443
C       44.16031198       2.89138336      35.90347165       0.11684671       0.28581710      -0.70926405       0.49991769       2.64176702      -1.84665561
H       44.36030226       2.81116293      38.01663536       0.04819908      -0.10246581       0.18527419       0.02382564      -0.30831134      -0.63692832
H       44.22915898       3.99727347      35.78044693       0.15190900      -0.10133140      -0.43720547       0.05428682      -0.98385650       0.68014425