960
Lattice="22.71981030225218 0.0 0.0 0.0 22.71981030225218 0.0 0.0 0.0 22.71981030225218" Properties=species:S:1:pos:R:3:momenta:R:3:forces:R:3 mol_liquid.pdb=T energy=-969669.0 free_energy=-969669.0 stress="0.002900950610637665 0.0015197776956483722 -9.061248420039192e-05 0.0015197776956483722 0.0010305359028279781 -0.0007978712092153728 -9.061248420039192e-05 -0.0007978712092153728 0.0022237510420382023" pbc="T T T"
C      -20.40327425      37.04493768       3.87504008       0.51529250       0.35790543       0.57285900       0.50146341       2.14039707      -0.43036267
C      -18.95822426      37.28897772       4.34645989      -0.10702587       0.17994200       0.08115805      -1.30505848       2.32492208       0.14632949
S      -20.71803138      37.08001269       2.04654414      -0.33948690       0.30643668      -0.48220179       1.09787989      -1.26007879       0.78780591
H      -20.66626236      36.13753189       4.32542714      -0.08565079       0.33036203       0.01410064      -1.08509469      -1.35205650       0.23337750
H      -21.04788043      37.88539445       4.21838911       0.16273565      -0.18840612       0.04062947       0.34556663      -0.84063447       0.17973182
H      -18.89380611      37.23811297       5.44884645      -0.20488639       0.09558640       0.02043040      -0.03707547      -0.00497340      -0.68511283
H      -18.61555740      38.26939807       3.99680584       0.10387021       0.10093419      -0.01584447      -0.22677271       0.09704459       0.42680874
H      -18.25288349      36.67458879       3.90938106       0.08410190      -0.20228114       0.11210012       1.10829270      -1.72234082      -0.74435812
C      -21.51040506      38.62642926       1.82383462      -0.20469051      -0.08094104       0.07761876       0.11824280       2.81418848      -0.58474648
C      -21.49384899      38.97488994       0.29392254      -1.12036870       1.53737344       1.02421826      -1.43340445       0.65492058       1.12200010
H      -20.97800630      39.51968938       2.36089985      -0.28229595      -0.18202773       0.07936712      -0.79457128      -1.74350739      -0.78005582
H      -22.52845780      38.58299770       2.19369489       0.14335971      -0.15259438       0.28240414      -0.16594046       0.10926635       0.09949945
H      -20.50543377      39.09891199      -0.00551329      -0.20516986       0.20099765      -0.23220337       1.64444995      -0.33371875      -0.66817176
H      -21.90503294      39.94887731       0.06142234       0.23127925       0.13957677      -0.06940634      -0.33567294       0.36668622       0.65256429
H      -22.06878333      38.35663498      -0.37829354      -0.11375778      -0.22131534      -0.04900620       0.23325863      -0.87614346       0.17333731
C       -9.16008019      10.91666683     -15.84113933      -0.38263996      -0.25210342       0.65879887       0.16713935       0.87966824       0.79108846
C       -8.81449037      12.38817671     -15.98755913      -0.05077096       0.38347544      -0.13054921      -2.08845711       1.10810125       0.18245296
S       -8.73861193      10.29039692     -14.19535774      -0.38895620       1.54487579      -0.02490075       0.61634105      -0.32729512      -0.11198319
H      -10.18323456      10.73854199     -16.15391193      -0.03667104      -0.22307113       0.26191193      -0.18585786      -0.21337178       0.17648557
H       -8.50236156      10.42230418     -16.50296670      -0.07856670       0.23656131      -0.31558765       0.52471304      -1.00534058      -0.63012612
H       -8.78188700      12.58707058     -17.04377812      -0.22840665       0.11776565      -0.11371471       0.92962635       0.14320555      -0.53685462
H       -7.93195974      12.68245240     -15.40623605      -0.01032710      -0.31645442       0.08977994      -0.27174914       0.07049496      -0.52917254
H       -9.71419227      13.04967919     -15.75559651      -0.11795483      -0.20323670       0.28860423       1.22379327      -0.78635931       0.47766411
C       -9.56377821      11.52323365     -13.17440835       0.59316173      -0.05698330      -0.01938961      -0.03880075      -0.21494815       0.52911651
C       -9.42272597      11.23747723     -11.66041834       1.37143995      -0.21453395      -0.01042810      -0.77107912       0.55725664       0.80348939
H      -10.57074581      11.26045975     -13.46253491      -0.00100012      -0.19756190      -0.14901519      -0.66176271       1.06681895       0.15872987
H       -9.25912694      12.58128601     -13.40736951      -0.00259318       0.37505348      -0.12520387      -0.42059612      -1.21893036       0.07637961
H      -10.01347656      10.32996332     -11.27259352       0.09990389       0.09895298       0.05180291       1.09210348       1.30434608      -0.81794715
H       -9.82328388      12.15118736     -11.14065008       0.08294574      -0.16225350      -0.01017280       0.02113266      -0.92215896      -0.34997186
H       -8.38076729      11.23165162     -11.31408977       0.01981508       0.07107861      -0.14753174      -0.22916402      -0.49339020      -0.28683859
C        6.70445706       5.47995143      33.12062221       0.47746475       1.01093930      -0.43912692       1.15956461      -0.63773620      -0.75874978
C        5.22463137       5.44202189      32.97196555       0.13677758       0.58784558      -0.44945827      -0.68177158       1.40890217      -1.37424898
S        7.43742029       3.89915965      32.48319323       0.55038438      -0.94670851       1.47234202       0.22776997       0.33136463       0.98607010
H        7.17134515       6.29972309      32.55714898       0.21102768      -0.20044497      -0.15442705      -0.31261680      -0.37397444      -0.22087377
H        7.01719639       5.71637011      34.11169573      -0.06834367       0.00102597       0.18036900       0.36108011      -0.51428580       0.84804285
H        4.79424194       6.19654712      33.64219360      -0.24876321      -0.08429381      -0.02998799      -0.32865149      -0.28421003      -0.28152949
H        4.71780886       4.49065510      33.04894882      -0.11608092      -0.44379078      -0.06567054       0.22447677      -0.23994419       0.57639563
H        5.07344158       5.74246081      31.91622246       0.02229372       0.11269567      -0.09124483      -0.53347379       0.03163484       0.54241866
C        6.92342048       2.85850336      33.93205997       0.15419012      -0.05358180       0.05939025      -0.60042614      -0.58034968      -0.92245549
C        7.91535055       1.81980897      34.47063014       0.39185389      -0.02530837       1.00754068      -1.10563350       1.71985388       1.14168155
H        6.03956596       2.27766687      33.60247121      -0.05508588      -0.21854621       0.25297592       0.21532935       0.58139920       0.25583848
H        6.60191438       3.57709955      34.65083727       0.08646194       0.20140043      -0.03980902      -0.19687267       0.32662719       0.63719577
H        7.59347491       1.54115258      35.50715902      -0.36323067       0.01929995       0.07340989       0.49305069       0.13996357      -0.93096328
H        8.91979528       2.19476804      34.44115254       0.15415187       0.15120455       0.47645537       0.44767892      -0.09620266       0.19595999
H        7.76037829       1.02855855      33.81561326      -0.05343691       0.17268241       0.21368391       0.46033925      -1.86283326      -0.83478820
C       43.96040090       3.44289649      14.41549787      -0.13401301       0.10982549       1.60959154       2.64853644       0.68925780      -0.20349984
C       44.65251038       2.33548546      15.17674371       0.33882172       0.37474251       0.63237756      -1.83059406      -0.60626680       2.40477991
S       43.35384478       4.83778000      15.42646781      -0.75282078       0.69346913       0.49806674       1.34889960       0.02375752      -1.56824148
H       44.81703898       3.75527872      13.80398222      -0.11903239       0.17682527       0.05266922      -0.49769163       1.03351080      -0.04749146
H       43.28656246       3.07216908      13.69897222      -0.18789679      -0.16556260      -0.11916417      -1.26385307      -0.37373626      -0.58346504
H       45.27160965       2.76756490      15.99401131       0.16909136      -0.09105416      -0.03042416      -0.05524090      -0.43704119      -0.82343519
H       45.17099334       1.62808241      14.54858992      -0.01524860      -0.01951372       0.00944093       0.37657419       0.13111481      -0.22578771
H       43.86073337       1.73625028      15.70014149       0.35941473      -0.25211003       0.01491407       0.81176889       0.29821646      -0.28838977
C       42.31022522       3.94411152      16.49229064       0.44472848       0.33282855      -0.00048727      -0.96054184       0.14769062       1.51781762
C       41.18130536       3.25014691      15.75349100       0.21220713       0.64308219       1.06198193       0.01910685       1.86633563      -0.38132966
H       41.98706817       4.75531150      17.21449057       0.01615736       0.10454518      -0.11819269       0.03008892      -1.30178189      -0.56150699
H       42.86033042       3.18293292      17.01638593       0.01515658       0.09159852      -0.01152570       0.46420711       0.05049212       0.55085105
H       40.77222334       2.43663372      16.25913898      -0.01726646       0.33989451      -0.18212127      -0.60871029      -1.29212427       1.19110155
H       41.59618415       2.85493299      14.82890022       0.14574914       0.18763404      -0.29836001      -0.56890780       0.30512476      -0.23413393
H       40.38740482       4.00494822      15.66583143       0.03146172      -0.28620018       0.31469553       0.12639865      -0.52336520      -0.83933336
C       27.16205288      41.68929789      29.93266799      -0.18951613       0.45516424       1.18414915       0.22005515      -0.84499443      -0.44676092
C       27.94548164      41.64611896      28.60508455       0.56322980       0.03478548       0.95234805       0.37206215      -0.17367116       0.28634286
S       25.40459738      42.12761269      30.06154528      -2.58714990       0.04112449      -0.59340008       0.48072073       0.30501473      -0.02901164
H       27.24101677      40.69198007      30.39157834       0.36942422       0.04473096      -0.04679375       0.23086204       0.52846301       0.16538796
H       27.65972873      42.42630475      30.50954742      -0.03962063       0.35188881      -0.04456787       0.20111020       0.38708127       0.90268743
H       29.06212753      41.76334393      28.80292646       0.10695413      -0.09769938      -0.14849375      -1.53060865      -0.04944468      -0.24706197
H       27.60854656      42.36259903      27.87511375       0.01298693      -0.14887247       0.00726038       0.06415947       0.62403321      -0.06729673
H       27.79948297      40.69194538      28.13118989       0.27039244       0.18544682      -0.22314739       0.09822953      -0.49247450      -0.18715107
C       24.66275092      40.83678939      29.07305430       0.71489689       0.31266331       0.69538526       1.04525030       0.91073978      -1.71716833
C       23.16003527      41.06216210      29.04194486      -0.06187740      -0.44509353       0.60447080       0.67286569      -1.48796237      -0.15559912
H       24.89953727      39.87452255      29.43470930       0.02000857       0.01454731       0.13231968       0.14867319      -1.12619162       0.89582241
H       25.24911035      40.85881733      28.10293230      -0.01731687       0.12123963      -0.19621983      -1.27895737       0.18297693       0.56098008
H       22.92931221      42.03609906      28.68715119      -0.21430924       0.03101617      -0.05721678      -0.20460618       0.81827492      -0.13457614
H       22.83758489      40.94985020      30.09277543       0.17535916       0.39885257       0.18233021      -0.47452614      -0.17796490      -0.81143308
H       22.75223198      40.32692364      28.30427409       0.07304658       0.17325219      -0.19302668      -0.16556311       0.42434132       1.23987126
C        0.18545090      36.20315671       9.06309687      -0.05100549       0.09191589      -0.21263059      -0.08842367       1.04765677       0.22151074
C        0.86313332      36.20930174       7.68417297       0.12018049       0.11751986      -0.60783584       0.36614349      -0.41241574       0.85984075
S       -0.92149024      34.79692265       9.43480551      -1.09409733      -1.71031289      -0.17750005       0.21675232       0.27004850      -0.09173000
H        0.95505815      36.41502504       9.83323129       0.03840531      -0.00400650      -0.17143870      -0.59002846      -0.57574016      -0.18073814
H       -0.53605542      37.01794199       9.16529374      -0.07768865       0.17298987      -0.17308400       0.29916117       0.21132255      -0.24759856
H        1.70024356      35.51998487       7.73449203      -0.00085097       0.06434583      -0.03091884      -0.04104251      -0.33726180      -0.25098497
H        1.34222976      37.16260583       7.43083225      -0.15656321       0.11675949      -0.15088244      -0.59387404       0.01401100       0.09129672
H        0.16555670      35.87171477       6.93327169      -0.02409213      -0.03161269      -0.04686525       0.00029497       0.09813283      -0.40749550
C        0.15387604      33.72113954      10.38857583      -0.13781460      -0.57201663       0.10479794      -0.02119428      -0.54574549      -0.51716906
C        0.40979469      34.21059289      11.79474936       0.47684708      -0.09880306      -0.15174733       0.23700805      -0.11861759      -0.10118433
H        1.05661043      33.65958438       9.80903846      -0.37253923      -0.16670216      -0.18191507       0.65651059       0.01576880      -0.08109196
H       -0.26105787      32.70550780      10.33208415       0.07794945       0.14262387       0.09093136      -0.11516001       0.35312796       0.24423380
H        1.23967856      33.61624924      12.21981430      -0.04430841      -0.13247236      -0.12198640      -0.31704485       0.55562711       0.01258321
H       -0.48822966      34.04885094      12.39492310      -0.10369181       0.09528594      -0.01257707       0.20512214       0.28053916       0.06122120
H        0.66103687      35.28863648      11.73120551      -0.26823197       0.00129491      -0.00208183      -0.02923306      -0.73171031       0.46484804
C        5.99622845      -2.12861442      11.72766037       0.14727889      -0.84722265       0.16981522      -0.95433205      -1.93157887      -1.03865361
C        5.45595140      -1.93082201      10.28264314      -0.31129971      -0.32533817       0.32909067      -0.08390021       0.02235819       0.57990313
S        5.31300969      -3.72022468      12.50277492      -0.98844654       0.41967311       0.74639295       1.48048401       0.66926867      -0.46850938
H        7.05984673      -2.14168703      11.84158149       0.01074791      -0.06846252       0.14121792       0.59236157      -0.27310601      -0.19435388
H        5.67021265      -1.30455586      12.28777004      -0.04955725      -0.15048747       0.13215773      -0.64581716       1.01182759       1.01158702
H        6.01719136      -1.08073668       9.86151506      -0.02357202      -0.04378508      -0.07952325      -0.58468425      -0.13520305      -0.06986180
H        4.37643584      -1.68595382      10.45194503       0.20931816      -0.13339768       0.17597044       0.88628650      -0.06812312      -0.75146234
H        5.52975103      -2.78252945       9.56118515       0.04812960       0.03152713      -0.10722203       0.10475354       0.58575356       1.16084409
C        6.88613130      -4.68779631      12.36038907      -0.18459811       0.51114552       0.32057030      -0.14449218       0.26729676      -2.55168772
C        7.85849607      -4.63726199      13.46618541      -0.01413083       0.07864889      -0.39202027       0.50533420       1.08106530       1.16631949
H        7.46127025      -4.24465675      11.50521078       0.06811274       0.17799559       0.04472639      -0.97331440      -0.51121658       0.24361253
H        6.65620485      -5.73738119      12.05251755       0.03334330      -0.12401425       0.04941984      -0.03960983       1.01571941       0.48294142
H        8.49755445      -3.72668030      13.54054541      -0.01818029      -0.08155359      -0.05826282      -0.92075336      -0.28372589      -0.14657766
H        8.56455333      -5.40037430      13.28919830      -0.08992537      -0.06519832      -0.17949694       0.82436693      -1.15069902      -0.00374117
H        7.36442116      -4.79894273      14.40257593       0.15518197       0.01573628      -0.09358518       0.02203361      -0.11705910       0.74031901
C       30.56857624      14.35001427      49.51506824      -0.71090001       0.78483485      -0.53776690      -0.44124931       0.16742361      -1.71529698
C       31.56816003      13.70840630      50.42593203      -0.10849595      -0.98423537       0.06242024       0.17556746       0.08992535       0.24284047
S       29.80613462      15.94009580      50.07320712      -1.18019748       1.27146491       0.69514851      -0.27896264      -0.83314776      -0.12199436
H       31.05097550      14.68367053      48.58524182      -0.41317064       0.20887805       0.17412986       0.16944285      -0.27153885       0.18796635
H       29.86336838      13.56693716      49.12577073       0.03854045      -0.08814380      -0.03764099      -0.02630889       1.12643576       0.73079479
H       32.01063298      12.84236897      49.94796961      -0.08171435      -0.10519469      -0.05372167      -0.07342152      -0.23409423      -0.01970219
H       31.12762924      13.39242121      51.36231581      -0.20695183       0.07565062       0.06041778      -0.10362708      -0.02538881       0.23247439
H       32.35907449      14.41460339      50.61762583      -0.06477419      -0.08055629      -0.27725016       0.29575759      -0.00709501       0.32413316
C       31.02311154      17.15355538      49.48226306      -0.09054516       0.06806381      -0.41074415      -0.33428702      -0.33083880       0.23374733
C       32.39734125      16.87240519      49.98343119       0.11659458       0.34816743       0.13016850       2.61444998       0.95784533      -1.54365611
H       30.66872241      18.09047487      49.86781499       0.06904496      -0.23976472       0.11358443      -0.39946359       0.42545468       0.13696298
H       31.07150820      17.25227372      48.38797206       0.06109970       0.34128558      -0.12929471      -0.36299384      -0.20526239       0.30383709
H       32.84356690      16.14731061      49.26808933      -0.02071626       0.21132183      -0.10669188       0.06316884       0.22345607       0.79777539
H       32.60517162      16.57198125      50.99368976       0.07765939       0.12101197       0.26928506      -0.71804678      -0.34539086       0.44049740
H       33.04261288      17.79302662      49.86983709      -0.10062196      -0.22834730      -0.33547162      -0.66810673      -0.84448218      -0.08947535
C       15.61235311     -14.68306882       3.00035915       0.79910852       0.22269779       0.57550551      -0.13658383      -1.09090161      -1.39283681
C       14.70390564     -14.32865006       1.84651196       0.46579855       0.01531435      -0.04579537      -1.32308352      -0.33312577      -1.13365102
S       15.88532281     -13.43354585       4.18949380       0.17271140       0.08270228      -0.10720717       0.77434301       1.39625335       1.22032893
H       15.26305827     -15.59049820       3.54756033       0.16782732       0.24154714       0.13167979       0.37394446       0.69300401      -0.49670392
H       16.51909164     -14.89026429       2.41910763       0.10221648       0.05015412      -0.18656039       0.42430246      -0.42231011       0.98131454
H       15.09110156     -13.52055525       1.23782070       0.11872481      -0.04280487       0.10908953       0.43576780       0.07872082       0.00347100
H       13.68332580     -13.98873578       2.06744418      -0.34307612       0.08233100       0.26584356       0.25880811      -0.37742436       0.33265322
H       14.63692191     -15.19599102       1.13612120       0.02484893       0.10593145       0.26744654      -0.08735191       0.60973328       0.70907694
C       17.01270608     -12.27277678       3.26448807       0.01774693      -0.39507339      -0.38863618      -1.59932303      -1.23802543      -0.70974100
C       17.14924655     -10.92195049       3.84641509       0.78581283       0.40633803       0.13570613       1.19336712       1.98976171      -0.10536137
H       16.53729130     -12.29011079       2.28781527      -0.01504283      -0.19741345       0.04592914       0.09403195       0.53712165      -0.18958664
H       17.96489502     -12.70738832       3.11093084      -0.07541676      -0.04517540      -0.11779830       0.94183707      -0.71483767       0.14570391
H       17.72024144     -10.95903201       4.80435585       0.08878366      -0.03334897      -0.09339966      -1.00772715       0.09916483      -0.32572696
H       16.19561524     -10.34657013       3.87138761      -0.08203428      -0.08681470       0.38212086       0.78348541      -0.46977448       0.43413487
H       17.86651395     -10.31163210       3.19227566      -0.00240688      -0.18588328      -0.08561418      -1.07589138      -0.92810172       0.67482680
C       30.29416613      28.75607418      -2.86050044       0.57267963       0.49855347       0.50004107      -1.16985846       1.19560790      -1.57136846
C       31.61245102      28.52713959      -3.60000042      -0.35774012      -0.11512410      -0.08147115      -0.32357410      -0.69846320       0.81274450
S       28.74332805      28.12753391      -3.78911224      -1.12143307      -0.78570284      -1.22286265       1.09344304      -0.05150591       1.07958484
H       30.28839144      28.37446363      -1.88116845      -0.09393774      -0.04539068       0.39961428      -0.05901511      -0.89064294       1.09437490
H       30.04892122      29.82432323      -2.73755235      -0.12261999      -0.16551822       0.22141742       0.35373515      -0.40975642      -0.10683955
H       31.49826353      28.88543963      -4.63457180      -0.21028586      -0.11635371      -0.17065957       0.57114774      -0.20279808       0.54663157
H       31.78443223      27.43024620      -3.54579555       0.00964482       0.17380747      -0.05229245       0.11152858       0.67308551      -0.56864560
H       32.45981681      28.98416989      -3.02658758      -0.05120904       0.19096093       0.08253744      -0.74115211      -0.08073033      -0.90516263
C       28.39291963      29.66466037      -4.67184399       0.03664036      -0.17378948      -0.68024004       1.48653865      -0.12788928      -0.44326702
C       28.05616688      30.83854686      -3.78176307      -0.65472156       0.11090466      -1.22358269       0.11554460       1.67867398      -0.14183065
H       27.61382376      29.46236188      -5.38416894      -0.21094164      -0.35239508       0.01812307      -0.30396461      -0.24036846      -0.22779796
H       29.34020550      29.78775102      -5.25026757       0.06243138       0.25940513       0.20707952      -0.93298465       0.48950064       0.23775208
H       28.94871897      31.46211037      -3.51910425      -0.15736946      -0.00277891       0.10453174      -0.65124023      -0.95189559       0.30540204
H       27.46528681      30.52758587      -2.92072285      -0.07176728      -0.17025574       0.10117522       0.44890562       0.02290811       0.11131059
H       27.43609267      31.60955083      -4.27571731      -0.00140200       0.05538091      -0.03287669       0.04494776      -0.56932151      -0.22960132
C       17.77695605     -12.95057450      -0.44604684       0.29386493       0.20490521      -0.24037535      -1.35744524      -0.02678213      -0.21175209
C       19.10526539     -13.24289272      -1.10581913      -0.11973259       0.23043352       0.05544074       0.43991536       0.45615369       0.42976910
S       16.20353224     -12.79676244      -1.40238087      -1.37816699       0.97691996      -0.91922098       0.84225106       0.94494647      -0.57734299
H       17.51473408     -13.76546042       0.22270723       0.00443863      -0.07287771       0.24324573       0.31054407       0.16383936       0.52224058
H       17.71575356     -11.99445368       0.08857653      -0.17836952      -0.03844794      -0.03370242       0.47874063      -0.38255304       0.05288184
H       19.33177750     -12.62278901      -2.00039477       0.09559938      -0.02024253       0.17382547      -0.23879170      -0.50153226       0.65610981
H       19.14853486     -14.31531056      -1.32352496      -0.23122593       0.13378050       0.23760581       0.19018665       0.40840280      -0.17076325
H       19.86225777     -13.02463071      -0.30824300       0.17182470       0.29515631      -0.01513957      -0.38707107      -0.30102068      -0.90666825
C       15.58620372     -14.41379869      -1.76344510      -0.13772279       0.43472931       0.36012005      -2.30073404      -0.33328304       0.34687012
C       16.00171469     -15.12272605      -3.04077413      -0.18009438      -0.50496609       0.00411103      -0.16329920       0.79518485       0.43066567
H       14.46475006     -14.22194408      -1.74672093       0.06302132       0.09881313      -0.00691956       1.30105829      -0.28192312      -0.18749174
H       15.71592164     -15.01462192      -0.88834831       0.17813199      -0.13320538      -0.22737945       0.28309605      -0.55886739       0.54672956
H       15.28492146     -15.91220102      -3.32942536      -0.11822706       0.02547422      -0.23499918       0.51762700       0.28679526       0.17869389
H       17.00807281     -15.48208834      -2.87421496       0.29084424       0.09071463      -0.14756646       0.19411349      -0.41535488      -0.41852909
H       16.01549974     -14.32873451      -3.77815044      -0.12500756      -0.06527783       0.03703201       0.09293246      -0.34515810      -0.58465540
C        3.55818467     -24.45575657      -7.60249964      -0.00627877      -0.06037467      -0.17701571       0.61605978      -0.63354862       0.86223710
C        2.38664731     -23.93016746      -8.42926054      -0.15933105      -0.41841502      -0.94134911      -0.16388135       1.22059965       1.67934680
S        4.36896212     -23.13495757      -6.66468680       1.10973316       0.50544298       0.13869769      -0.11861498      -0.11406186       0.23426792
H        3.15764676     -25.14809662      -6.85589482      -0.04678203      -0.06244291      -0.05989132       0.18374649      -0.07338832      -0.07888864
H        4.36120263     -25.01882921      -8.16335540      -0.23253200       0.06972308      -0.21382510      -1.19692349       0.75747776       0.21901470
H        1.38391732     -23.98748519      -7.93664714      -0.08920065      -0.31748609      -0.23183458       1.07434893      -0.21709955      -0.08463553
H        2.40178293     -24.58462184      -9.23753367      -0.14264662      -0.08180315      -0.12640419      -0.54985392      -0.42703161      -2.04483366
H        2.50585387     -22.85135458      -8.64456546      -0.05319262      -0.10238521       0.06981924       0.16024026      -0.79234272      -0.46067697
C        5.43113351     -24.12617305      -5.54259909      -0.48481320      -0.83164840       0.46605975      -0.77677745      -0.82789743      -1.47828293
C        6.60406578     -24.76690805      -6.30730772      -0.56337646      -0.68584963      -0.26303244       0.82184923       0.29663149       0.60209209
H        4.80846939     -24.93491610      -5.14457145       0.13179280      -0.08625028      -0.02010911       0.02244117       0.37429959       0.29451981
H        5.66547786     -23.41640974      -4.78695763       0.05615236      -0.13915866       0.33785975       0.57283771       0.23952577       0.71718425
H        6.94229150     -24.00137674      -7.06294174      -0.03386587      -0.07593663      -0.15729945      -0.02387247      -1.11636496       0.67062330
H        6.23595126     -25.70149097      -6.80817242       0.18787854       0.08188419       0.05845324       0.61899835       0.97445446       0.34331137
H        7.45685149     -25.01433586      -5.56720591      -0.08997516       0.09807762      -0.10477147      -1.25251842       0.20865436      -1.36770141
C       11.65133137       6.75997114       0.06509060      -0.00673612       1.27727750       0.87130843      -0.28738159       0.07408777       0.85541594
C       10.43789572       5.86148434      -0.15065460      -0.05314247      -0.03017254       0.26881821      -0.25501737       2.04123187       0.52179599
S       11.26778650       8.54161500       0.03363359       1.04271260      -0.10190004      -0.41949504       0.24702901      -0.62992960      -1.23705983
H       12.18969467       6.60141448       1.00142108       0.20897015       0.24565711      -0.06328135      -0.69493097       0.07652707       0.47563219
H       12.44133131       6.45353162      -0.58010544       0.29433573       0.06261404      -0.13889185       0.46921781       0.31378976      -1.25752783
H        9.60986753       6.07492936       0.52325178       0.40240683      -0.19475105      -0.07867179       0.25627890       0.14836946       0.13781223
H       10.70229490       4.87053528       0.01217346       0.09141648       0.03837248      -0.01262603       0.44493559      -1.88914990      -0.07576422
H       10.06613851       6.04912063      -1.14101547       0.15583994      -0.01032974      -0.00425776      -0.12540409      -0.36570191      -0.41460180
C       10.81283292       8.87226033      -1.74427392       0.42356178      -1.36508575      -0.79922238      -0.02517958      -0.86532319       0.16275519