384
Lattice="16.399167491545 0.0 0.0 0.0 16.399167491545 0.0 0.0 0.0 16.399167491545" Properties=species:S:1:pos:R:3:id:I:1:momenta:R:3:forces:R:3 energy=-201676.640625 free_energy=-201676.640625 stress="0.0038824325893074274 0.0012519326992332935 0.0017674615373834968 0.0012519326992332935 0.004356068093329668 -0.00045108117046765983 0.0017674615373834968 -0.00045108117046765983 0.003802570980042219" pbc="T T T"
C       -4.92672871      21.51409460      14.04914200        1      -0.61084891      -0.25615174      -0.23948106       0.78313005      -2.00107479       0.63391227
O       -5.77639803      20.36062667      14.06884448        2       0.48406185       0.20719609      -0.59561114       0.05936104       0.04170661       0.22744557
H       -5.03416105      22.10159662      14.91803197        3      -0.11003354       0.18065041       0.10544150      -0.61939698       1.06007457       0.76615262
H       -5.09521664      21.96121477      13.13496358        4       0.37975159       0.42216076      -0.01203834      -0.52919006       1.49970341      -1.49662018
H       -3.88630890      21.22286626      14.04801551        5      -0.02718177      -0.23721812      -0.14940754       0.38794029      -0.29294103      -0.06220166
H       -5.41484426      19.76354774      14.74895029        6      -0.13285631      -0.14895317      -0.04611086      -0.03350733      -0.21269068       0.40676561
C        0.09880299      44.22718983       4.32735050        7      -0.57885689       0.01860617      -0.78558647       0.38801757      -1.94566643       1.67050219
O       -1.31016748      27.79111912       4.45382108        8      -0.22201292      -1.00482564       0.07883691      -0.73502690       0.52698237      -1.76140475
H        0.53513296      44.88818239       3.64956920        9      -0.02648918       0.21738380      -0.01809237      -0.05119285       1.22886586      -1.62842274
H        0.49233754      43.20059498       4.07786992       10       0.10484415       0.14377380       0.08271867      -0.27129096       0.93911588       0.43735614
H        0.49876629      44.58122310       5.29514027       11      -0.10603987       0.27270462      -0.10934573      -0.15530115      -0.59877181      -0.24029799
H       -1.75269299      27.97368894       3.57182779       12      -0.01936871      -0.37854591      -0.05656518       0.91696167      -0.05628227       1.39474273
C       13.42809954       5.34291579      -7.97502795       13       0.33924307      -0.70883254      -0.16785918       0.31769541       0.03725902       1.39269578
O       14.18369248       5.03536217      -6.75876104       14      -0.31027074       0.54511080      -0.25002943      -0.51221544       0.97454679      -0.48323718
H       13.56087202       6.35324926      -8.28459192       15      -0.29700742      -0.05086363      -0.20452156       0.57981366       0.89367664      -0.26613829
H       12.39065769       5.28402491      -7.77324300       16      -0.11069828       0.28757475      -0.31363565      -1.02893484      -0.41602543       0.37476355
H       13.60880863       4.70421677      -8.81950472       17       0.08433093      -0.16706453       0.28277975       0.74631238      -0.56066453       0.20349553
H       13.93875866       5.71768779      -6.07923229       18       0.25449374       0.06364416       0.20885027       0.24888726      -0.75893331      -0.93616360
C        6.57456570      14.59801530       8.99816243       19       0.29623010      -0.34478689      -0.73846403      -1.10197783       1.33722615       0.70652115
O       24.29883948      14.19743729      25.34728045       20       0.45135172      -1.63513170      -0.12137649       1.15489244      -0.27367863      -0.24020083
H       22.44028254      13.88788364       9.60962577       21       0.07843252       0.16732938       0.02940339      -0.36827794      -0.45913675      -0.23887342
H        6.12825431      14.75328422       8.00285585       22       0.06116235      -0.08206692      -0.02851007       0.04484567      -0.26161322       0.34640318
H        6.47438682      15.55192881       9.56877129       23      -0.07868072      -0.27311761      -0.07508950       0.01600166      -0.44927788      -0.45355284
H       24.79088284      14.97083172       8.67207207       24       0.00272870       0.05879148       0.13284822       0.42381766       0.02994299      -0.10156734
C       32.11331429      -1.52686697      -3.43170830       25      -0.06696171      -0.25681133      -0.99303154      -0.59186363       0.92264187       1.22963428
O       14.44205806      -1.09678264      -3.92969871       26       0.01228593      -0.89225638       0.23534057      -0.41301924      -0.98449022       0.67761838
H       32.08996534      -1.69767529      -2.34161501       27       0.09594106      -0.26148209       0.04550362       0.01504567       0.33914593      -0.35593423
H       32.89727440      -0.82762367      -3.68668082       28       0.11624664       0.07882649       0.09835865      -0.14240278       0.67270863       0.12244140
H       32.46120076      -2.42012636      -3.84361295       29       0.07078759       0.03216897      -0.00170123       0.10994837      -1.79385436      -0.86926413
H       13.71698506      -1.51145347      -3.35563435       30       0.57960941      -0.02447222       0.27516988       1.03043199       0.75544721      -0.79882038
C       11.90532579      13.19165001      16.89188179       31      -0.37557214      -0.04174846       0.24068739       1.12023211      -0.75705695       2.84682512
O       10.50501775      13.06871040      16.87752582       32      -1.10631456       0.80139031       0.45025900      -1.07286084      -0.76361871      -1.19991350
H       12.38707532      12.31259581      17.52449247       33      -0.21515363       0.18043481       0.09144776      -0.93615627       2.06464481      -1.22359383
H       12.09531265      14.17667744      17.33631702       34      -0.11582586       0.01784928      -0.09007582       0.58940601      -0.47614932       0.21996690
H       12.42533947      13.22153010      15.95320242       35       0.25136642      -0.14713498       0.05179771      -0.68149906      -0.32317999      -0.72766435
H       10.08467515      13.40430985      17.68385357       36      -0.07973930       0.17767933      -0.07027770       0.41886580       0.08106735       0.02907464
C       16.60506437       4.93227576     -12.65039301       37       0.48972747       0.09353673       0.41336060       0.74272603       0.02430026      -0.67510158
O       15.94108018       4.86886080     -11.41978393       38      -0.14886271       0.00334300      -1.56013280       1.05388308       0.70957994       1.11676431
H        1.20987505       4.40795598     -12.61893484       39      -0.23620094       0.09811660      -0.00525021      -1.01369262       0.47297296      -0.17080931
H       16.76175445       5.97382771     -13.02157750       40       0.15211901      -0.28479213      -0.17859827      -0.03413894      -0.60758322       0.38173422
H       15.93791771       4.44033189     -13.33678825       41       0.13669778       0.09770223      -0.23765581       0.12008119      -0.28491879      -0.58892471
H       16.59449680       5.27360881     -10.80802355       42      -0.02353186       0.06126661      -0.04406902      -0.68327677      -0.31055886      -0.20324571
C       25.22776495      40.75038838      -1.08670140       43       0.02498248       0.08847100       0.34577944       0.39836597       0.60457134      -1.30905616
O       25.25112948      40.19875344       0.18931520       44       0.55294218      -0.91577920      -0.38606374       0.42752165      -1.49717045       1.34549141
H       26.10597658      41.44688859      -1.28412686       45       0.07922107       0.13969481       0.05726883      -1.03033304      -0.86365026       0.49121252
H       24.29617221      41.33513070      -1.15380320       46       0.19341339      -0.06444585      -0.20512854       0.41726097      -0.17748387      -0.55182219
H       25.25676647      39.93778931      -1.84655312       47       0.03804702       0.50584613      -0.04162832      -0.18727461       0.64021051       0.27432516
H       25.28967938      39.18597735      16.55923434       48      -0.02880008      -0.02157219       0.04083672       0.18871285       1.26975822      -0.48204273
C       11.48630002       5.01567303      18.07049784       49      -0.38112648       0.17373617       0.12847290      -0.14569595       1.82801390       1.93094897
O       10.89811379       3.82410515      18.46837812       50       0.94341012       1.46112672       0.63931811      -0.09316775      -1.83339465       1.04470646
H       11.66197889       5.68168578      18.95990661       51       0.14424422      -0.25658994      -0.05835470      -0.58966482      -0.39433065      -0.72867835
H       10.74751569       5.43956987      17.41115595       52       0.11233447      -0.02853502       0.00266959       0.51338524       0.59670389      -0.36691085
H       12.48597447       4.94731533      17.69426070       53       0.02671560       0.15787324      -0.12981790       0.46637392      -0.46086955      -0.85204530
H       11.22124328       3.54025840      19.35495890       54       0.03299948      -0.10316646       0.03093191       0.02784972       0.43911332      -0.84630746
C       31.52424663      -2.51900620      17.70040728       55      -1.32392307      -1.07740383       0.59462017       1.86697054       0.26244938      -0.95634544
O       30.68435090      -3.24473391      18.55818524       56       0.18776267      -0.00910359       0.08517803       0.36461222      -0.66943419       0.06199756
H       32.15766067      -3.24992997      17.07935277       57      -0.19622404       0.10534872       0.26536137      -0.97705793       1.06282139       1.02581155
H       32.24397302      -1.90303101      18.34292581       58      -0.02650462       0.02113230      -0.24035010      -0.83449131      -0.53147244      -1.17782927
H       30.95388015      -1.86470681      16.96959519       59       0.12602234       0.14173742      -0.12869943       0.61986864      -0.66005313       0.98190528
H       30.11193355      -2.58859494      18.94111428       60       0.08764291      -0.08871451       0.09001338      -0.63476694       0.48085898       0.32486063
C        4.43860545      22.92553834      14.48978140       61      -0.77063071       0.38961587      -0.24962804       0.87530482      -0.37723738       0.70528615
O        4.39499174      22.13011802      13.29195496       62      -0.30580743       0.85750613      -0.54320036       0.60457563       0.39705628       0.33051205
H        3.75261990      22.49904551      15.25872377       63       0.15984322       0.15956866      -0.15103954       0.75403386       0.12767474      -0.32891092
H        4.12869239      23.94643556      14.32400314       64       0.12809673      -0.00882697      -0.20886885      -0.28750065       0.16040662      -0.53383911
H        5.50264851      23.02123557      14.83942625       65      -0.04164235       0.08218785      -0.36016898      -1.10255957      -0.42150822      -0.01160700
H        5.15408358      21.49834344      13.28890928       66       0.06446516       0.08174908       0.07169813      -0.37019727       0.07028335       0.23529196
C        7.59979935       4.58821752      12.77297470       67       0.68856776       0.27325450       0.14282416      -0.96934068       1.81053209      -0.41829872
O        6.51895351       4.11370255      13.57331790       68       0.52238825       1.17801118      -0.20926097       0.44528234      -0.71492928       0.34455898
H        8.53907927       4.19564383      13.04073903       69       0.15147688       0.11405442      -0.06925258       0.95056093      -0.93136215       0.29575309
H        7.73216971       5.70062855      12.92752152       70       0.12470342      -0.15877970      -0.02346360      -0.49410447      -1.08592558      -0.06531622
H        7.38930473       4.44096525      11.70580527       71      -0.38001239       0.07892656      -0.30135808       0.16463248      -0.07563971       0.21330263
H        6.64218943       3.14375507      13.82799507       72       0.12579017       0.06202673      -0.02361087      -0.23695993       1.08322191      -0.50208712
C        6.68257746       1.24041817       7.73223370       73       0.39396273      -0.40395540       0.45932373      -0.20740010      -0.19924495      -1.06502342
O        6.12838921       0.62040098       6.54010037       74      -0.75138553       1.39351306      -0.80387485      -0.40963948       0.03889227       1.06492925
H        7.57987724       0.79230982       8.13036224       75       0.09232759      -0.01571004       0.00308391      -0.04332215      -0.81167996      -0.08253571
H        5.85510818       1.14545990      24.81211676       76      -0.03799272      -0.00975151      -0.05265559       0.09167542       0.82890344       0.54712147
H        7.04185454       2.21721967       7.44113022       77      -0.11956590       0.00624605      -0.09064820      -0.58828217       0.55843365       0.39724311
H        6.81242049       0.31304159       5.97707287       78      -0.13951967      -0.06506198       0.02405665       1.23418784      -0.15218867      -0.82171041
C        6.06675738       0.78491854      17.85271402       79      -0.06185590      -0.39294549      -1.50567098       0.16228230      -1.60002577       2.43218398
O        4.71224347       0.36450095      18.00092907       80      -1.17749451       0.00551420       0.56834367       0.25371522       0.10363363      -0.10958533
H        6.25682915       1.26580573      16.95728863       81      -0.15742877      -0.01457086       0.08523109       0.07760888       0.70196915      -1.83890212
H        6.75556112      -0.06544222      18.03067671       82      -0.06308569       0.13222185       0.09945217      -0.22114244       0.22576749      -0.65093309
H        6.30676074       1.43584206      18.67482250       83      -0.41141274       0.09573508      -0.10425872       0.11910897       0.79632711       0.23077437
H        4.70789449       0.04983668      18.91343132       84       0.01025388      -0.01007861      -0.19554430      -0.27243516      -0.19087806      -0.12412169
C       32.18638607      -1.48470601      -6.93108867       85       0.22358008      -1.18641868      -0.26473772      -0.71015871       1.19199526      -0.23526224
O       31.54955481      -2.57413772      -6.33383017       86      -0.62874238      -0.27009762       0.14948986       0.67348498      -1.56788802      -0.93136400
H       32.75664251      -1.91754983      -7.74001539       87      -0.11420387       0.31318889      -0.32497985       0.26718599       0.47567767      -0.28321648
H       32.80322578      -0.93526983      -6.21702952       88       0.32775017       0.26166842      -0.21257258       0.30983600      -0.12673488      -0.18407936
H       31.42287990      -0.74309406      -7.28678925       89      -0.06737981       0.06250759       0.01261649       0.74368632      -0.60936135      -0.11071322
H       31.03919520      -2.25093549      -5.62923902       90      -0.29646523      -0.16169754      -0.15164173      -1.18260598       0.73853105       1.74314129
C       -4.30576629       0.15857412     -14.18813879       91       0.42983802      -0.83036958       0.11103919      -1.15034938       0.80892611      -1.67964005
O       -3.31174661      -0.67778112     -13.72700727       92       0.93787572      -0.36149003       0.30747804       0.77374387      -0.85964602       0.84975314
H       -4.33998064       0.21446450     -15.28165190       93       0.11690567      -0.04573413      -0.17117367       0.36092189      -0.18119696      -0.02682884
H       -4.25458709       1.19604669     -13.88638142       94      -0.12590130       0.07064771       0.10051838       0.26614600       0.07662047       0.59720463
H       -5.28208551      -0.22315104     -13.96881030       95       0.23557153       0.09110705      -0.04282481      -0.46603265      -0.31684178       0.59485406
H       -2.61731045      -0.15821342     -13.30489879       96      -0.23741505      -0.13990101      -0.01139835       0.15035543       0.35342884      -0.31729963
C       19.56133505      19.38555230      15.58064780       97      -0.26970624       0.78010184       0.16093927      -3.67285824      -1.02832413      -2.59064770
O       34.98769369      20.19659081      16.26254708       98       0.52125850      -0.19624990      -0.48873714       0.27890503      -0.01382004      -0.48032945
H       19.03111588      18.42517245      15.20285530       99       0.17309927       0.01527296      -0.27029077       1.06041229       1.38596916       0.62794250
H       20.32556342      19.11938863      16.19436064      100      -0.00759190       0.05975455       0.11158468       1.98736215      -0.63104922       2.01634336
H       19.96392112      19.84190544      14.68421680      101       0.04079130       0.26779968      -0.15489262       0.04197464       0.48966491      -0.04924095
H       34.22394756      20.31370420      15.66192383      102      -0.15364607      -0.01084125       0.08412124       0.37841585       0.04155895       0.27906355
C      -12.17166619      26.06898727      36.63218842      103       0.76313375       0.07157095       0.02274896       0.61497605      -0.12890366      -0.42640495
O      -11.98496014      27.07065126      35.65238711      104       0.34918958       0.45902824       0.30989349       0.04629844       1.22713327      -0.20996726
H      -11.63306078      26.39625498      37.53635493      105       0.10595397      -0.07898601       0.18642479      -0.07372730      -0.22904484      -0.47272062
H      -11.74868958      25.14043828      36.23538820      106       0.09033857      -0.03531485       0.17152296      -0.11694049      -0.14727220       0.48504293
H      -13.20674626      25.91808066      36.92769190      107      -0.00003325       0.19065023      -0.05319222      -0.24243110       0.01794124      -0.20823419
H      -12.20572626      26.83208744      34.73019878      108       0.05386179      -0.06725151      -0.01399999      -0.30466625      -0.72484946       0.90782201
C       26.69511666       5.86621410       5.23716083      109       1.03716655      -0.54604303      -0.84437246       0.57482845       0.53413790       1.43679535
O       26.28488787       4.57544989       4.94115630      110      -0.82591533       0.05791185       1.50932553      -0.23998934      -0.91460836      -0.59792411
H       27.60667847       5.78298892       5.87243400      111      -0.01618760       0.09643201       0.12460642      -0.51264817       0.28612772      -0.45354462
H       25.91655950      22.73979091       5.82130652      112       0.04442522      -0.03626797       0.14361183       0.05825152       0.41529959       0.28639746
H       26.90549631      22.91120899       4.39590624      113      -0.18757403      -0.25058265       0.16325367       0.15737417      -0.11738881      -0.52322513
H       25.31246195       4.57573454       4.79314483      114       0.08188399       0.13863414      -0.00023058       0.16132101      -0.23199338      -0.05730592
C        1.97992134      24.76485211      -5.24097870      115       0.72282830      -0.57566784      -0.30243223      -1.69872141      -1.16545081       1.13399827
O        1.34136096      24.68067485      -3.89551565      116      -0.16164840      -0.22580971      -0.28712049       0.83462298       0.42395407      -1.06816530
H        1.87438032      25.79738687      -5.56798498      117      -0.06235847       0.09390384       0.09745606       0.36687514      -0.09952228       0.12793238
H        1.35436554      24.12033724      -5.93094731      118      -0.20346836      -0.12398298      -0.02110283       0.94669092       0.61512053       0.58136988
H        3.00495680      24.38163101      -5.15700780      119      -0.01014608       0.01382641       0.06299472      -0.29349574       0.36737016      -0.38560224
H        1.45042500      23.75199702      -3.60588340      120      -0.16445215      -0.34511128       0.19299396      -0.11248989       0.32826978      -0.51099336
C      -14.81379141     -11.68681111      11.66074566      121      -0.54946615      -0.03763062      -0.19475882       1.03371513       0.39655378      -0.69325376
O      -14.43102761     -10.69615308      12.63306123      122       0.13918061      -0.43882082       0.35830738      -1.04789412      -0.32553089      -0.00092927
H      -14.00875057     -11.77605003      10.88317346      123       0.32955531      -0.08909879      -0.02692077      -0.89150894      -0.04212201       0.83215272
H      -15.73817320     -11.34761358      11.14240930      124       0.21190864       0.04524218       0.01325650       0.59255260      -0.34877533       0.58320540
H      -14.92007595     -12.66022450      12.14597273      125      -0.00508842       0.18468394      -0.13071133      -0.31421268       0.14920278      -0.18422335
H      -13.50165156     -10.79571435      12.94580898      126       0.07191915      -0.01707385      -0.12501046       0.07813790      -0.30975091      -0.45777124
C       10.15792213      19.31372014     -41.06375911      127       0.13171685      -1.09019964      -0.34315904       1.02007079       1.26933825      -1.02618778
O        9.57544342      19.02918838     -42.37721411      128       0.59682976       0.53200836       0.36845638       0.64376092       1.14048004       1.69127917
H       11.23674469      19.63887121     -41.14689955      129       0.16149516      -0.09046164       0.06444449      -0.97086596      -0.54978144      -0.20353967
H       10.11822076       2.05325751     -40.44042311      130      -0.36350667       0.11809423      -0.15189677      -0.24867806      -0.70627308       0.33236805
H        9.67519963      20.16259309     -40.56934123      131       0.00507548       0.29024591      -0.15019671      -0.34909895      -0.29651973      -0.17700744
H        9.63876855      19.87087059     -42.86464904      132       0.21246342      -0.07884093      -0.13794285       0.07819118      -0.31812090      -0.53193611
C       33.58402404      17.29878444       0.43014393      133      -0.72168355       0.56405580       0.27839148       1.20405233       1.90993857      -0.36159709
O       33.10114073      18.53219824       1.05051808      134      -0.09390987      -1.52615990      -0.83223533      -1.86140287      -2.66016603       0.01185679
H       34.67374483      17.34336057       0.44546833      135       0.02741360       0.09578397       0.05901721      -0.10508531      -0.42847085       0.32968900
H       33.34910898      17.31961503      -0.62577193      136       0.21416403       0.00050240      -0.33310953      -0.51266783      -0.25337809      -0.20624721
H       33.25520134      16.40489482       0.91078366      137      -0.00281634      -0.05022034      -0.16499147      -0.47165605      -0.28528124       0.41641453
H       33.81844563      19.12227665       1.06650367      138       0.36292263       0.05320944       0.21021006       1.46122837       1.37048638      -0.08628950
C       13.31764214      13.72277103      22.56652555      139       0.02985961      -0.48923295       0.76761034       1.83543611      -0.77757496       1.39729059
O       13.46816522      12.32180129      22.86108024      140      -0.63785465      -0.64344885       1.11605852       0.79664814      -0.31988341      -1.08617854
H       14.28954035      14.23201074      22.82061600      141       0.03596141       0.22266234       0.01610573      -0.97823876      -0.16025741      -0.22160387
H       12.54702609      13.99979434      23.25181569      142      -0.20016512      -0.10419013       0.17255563      -0.40877444       0.71117318       0.06789927
H       13.08243586      13.92576660      21.54552243      143      -0.08728653      -0.09324832      -0.14633860      -0.36724108       0.05990093      -0.74230099
H       14.17783527      11.94979641      22.26804795      144      -0.01000252       0.12408868       0.03996057      -0.91803676       0.44649205       0.49295846
C       13.36336477       3.26963677     -11.15692660      145      -0.37503077       0.52661310       0.40660303       0.25794935      -0.15753752      -0.60780138
O       12.96876253       3.30133824     -12.56019649      146       0.01288444      -0.61818873      -0.17353507       1.57669938      -0.11671671      -0.18287182
H       13.37663815       4.29618198     -10.74889741      147       0.12218274       0.15441554      -0.10522353      -0.17837411      -0.57413328      -0.30185118
H       14.41181445       2.85978796     -11.00182436      148       0.04065455       0.05921020       0.05473638      -1.57338643       0.27829027      -0.26048586
H       12.55381599       2.65925963     -10.75412985      149       0.05530909       0.26982000      -0.03329727       0.51048708       0.08132615       0.85898578
H       13.71612420       2.90988534     -13.06569443      150       0.11359776       0.32753151       0.23921775      -0.75562602       0.27759802       0.51932490
C        5.77432774      14.10381867       3.36753681      151       0.93330036       0.31325405       0.10040906       0.88727850       1.23975551      -0.14693037
O        5.31507345      15.36607681       4.04403911      152       0.43690389       0.32785200      -0.04819923       0.60011709      -1.43445063      -0.58599228
H        4.97153623      13.53492455       2.92256230      153      -0.00982169       0.07684328       0.06096626      -0.51087397       0.36371130       0.37724191
H        6.32162416      29.85224938       4.04485698      154      -0.07817747      -0.18238080       0.01380950      -0.14351013       0.16097546       0.29088539
H        6.47740431      14.33995145       2.54340722      155       0.27377336       0.06437056      -0.14701414      -0.44734004       0.04688596       0.49562946
H        6.09474491      15.76182848       4.47634605      156      -0.12818015       0.17165603       0.41426988      -0.29609799      -0.35537970      -0.47744811
C        0.49919515      40.02544600       7.05794307      157      -0.49921755      -0.31012866      -0.31376194      -0.82815462       0.44801596      -0.29594067
O        1.45716442      39.34214230       6.27470549      158      -0.26260391      -0.24096441       0.69895069      -0.28557515      -0.47695950      -0.35485148
H        0.19697119      40.90273520      22.84221787      159       0.05355028       0.13242686      -0.13042317      -0.39781421      -0.67144078       0.56886232
H        0.83304084      40.42152363       8.00785871      160       0.09257377       0.04801392      -0.16688903       0.62755644      -0.08382431       0.13842785
H       -0.33826682      39.33025032       7.30947018      161      -0.05643288      -0.12224994       0.29360436       0.36905509       0.73037791      -0.47466609
H        2.30109715      39.25386150       6.69832220      162      -0.22840470      -0.01631999      -0.11809718       0.64513695       0.14520790       0.61470634
C       39.33618194       4.72323891     -10.42094111      163       0.66528042       0.55882682       0.22595777      -1.46383905       0.06777729      -0.15855226
O       40.06498302       4.19930592     -11.51379811      164       0.56924396       0.23183910      -0.62244831       1.38740969      -0.50786436       0.83664417
H       38.28289028       4.42148190       5.80414722      165      -0.15422308       0.00772026       0.24505236       0.56459165       0.55683810       0.53749847
H       39.38625025       5.82246528     -10.41392036      166      -0.08666545      -0.14880344       0.34959385       0.02161989      -0.32730469       0.31650117
H       39.63058291       4.29255667      -9.44768600      167      -0.27977186      -0.27273155      -0.07897170       0.25413334       0.26916662      -0.74777842
H       39.63693345       4.44643063     -12.32691318      168      -0.20259414       0.21921901      -0.10872268      -0.88491285       0.17790267      -0.76571167
C       -3.84792373      19.09489841      -5.26433115      169       0.57274055       0.25176178      -0.33727899       0.35194206       0.52619743      -1.15967429
O       -5.08596378      18.98727020      -4.56524343      170      -0.49010091       0.18455599       0.54420380       0.42118782      -1.58293343      -1.29990792
H       12.27360814      19.26886914      -6.34420959      171       0.06478209      -0.26167125       0.01280349       0.65794349      -0.17854404       1.12199485
H       -3.11282921      18.25005587      -5.22392855      172      -0.04184602       0.14943245       0.04516992      -1.23776484       0.10167108       0.27914536
H       -3.24643389      19.93775864      -4.92025382      173      -0.10593895       0.13815303      -0.10686382      -0.36014217       0.16843976      -0.07230238
H       11.21428198      19.53990312      -3.80865482      174      -0.30969884      -0.04198053      -0.12438586       0.01288646       0.76460230       1.08959842
C       37.03923448       4.25295001      19.07726782      175       0.42649636       0.96403700       0.21340703      -0.05137756       1.45819068      -1.31280208
O       38.32915083       4.80007277      19.23843696      176       0.11682858       0.36728809       1.02392014       0.67505765      -1.23518515       1.67293382
H       37.04868339       3.19625588      19.17581958      177      -0.11942359       0.02905632       0.03062348       0.23588960      -1.03171670      -0.13365859
H       36.72764285       4.54900495      18.05173508      178       0.14723283       0.13226214       0.18206284      -0.55204284      -0.45701510       0.83821815
H       36.38194587       4.62697799      19.85667348      179      -0.58040134      -0.24506317       0.17558058      -0.30954474       0.29949552      -0.16927774