1152
Lattice="22.744507766959927 0.0 0.0 0.0 22.744507766959927 0.0 0.0 0.0 22.744507766959927" Properties=species:S:1:pos:R:3:momenta:R:3:forces:R:3 mol_liquid.pdb=T energy=-475710.6875 free_energy=-475710.6875 stress="0.004588173236697912 -0.0004859178152401 -0.001004024758003652 -0.0004859178152401 0.004050443414598703 0.0007917277980595827 -0.001004024758003652 0.0007917277980595827 0.0034772164653986692" pbc="T T T"
C        2.43291484       8.61596332      42.19398361      -0.88608174      -0.37012466      -1.18349080       1.49508405      -2.14039803       1.18972588
C        1.54978759       9.75998947      41.82352599       0.61046250      -0.55525624       0.18633605      -0.35970339       0.41654396       0.71761119
C        2.59359766       8.18554168      43.69754235       0.99934047       0.02378862       0.36319896       0.57865208      -0.33556199      -0.73045093
H        3.48167717       8.80789008      41.88873600      -0.05414750       0.11485570       0.35446424      -0.72492921      -0.09959241      -0.29188597
H        2.06026766       7.71189820      41.69056875      -0.07140604      -0.05826555       0.08285582       0.41050071       0.52318287      -0.21310990
C        1.79421940      10.17081957      40.41344775       0.16679655      -0.02999209       0.10149327      -1.06896782       0.19735321      -1.06305981
C        0.09085733       9.39156445      42.13848761       0.82580279       0.14938399       0.08687466       0.27211207       1.07013440       0.14087188
O        1.88850824      10.92814612      42.58417029      -0.59523561       1.40311779      -1.05172945      -0.28574753       0.97201115      -1.64647245
H        2.68811128      10.70118676      40.19015408       0.00541217      -0.23839841      -0.20699056       1.07728815       0.32978112       0.62487632
H        1.01345601      10.87417661      40.14113567      -0.10179585       0.04846310       0.08062644      -0.23472406      -0.17379743      -0.30783957
H        1.82306746       9.33661870      39.73310440       0.10628539       0.29732911      -0.09863664      -0.48164061      -0.44517455      -0.21517970
H        0.11083288       9.23849776      43.21182983       0.21117261       0.21178556      -0.25735479      -0.48366094      -0.20965877       0.18347031
H       -0.18654404       8.47829732      41.64347248       0.01439571      -0.03823877      -0.14783904      -0.24805978      -0.03934293      -0.07117607
H       -0.63115986      10.20777172      41.91803990      -0.12298257       0.04196056      -0.15163238       0.64831889      -0.60509485      -0.01273047
H        2.16574843      10.69809235      43.43593943       0.12271985       0.01880374       0.32067285       0.33667031      -0.61876172       1.98992419
H        2.69713317       9.03224817      44.31795504       0.08224213      -0.07552114      -0.06678441       0.54109073       1.21621656       0.65654337
H        3.51905200       7.55608936      43.86354977       0.28294566       0.01408854       0.24692589      -1.11973536       0.69774550      -0.43280223
H        1.75831082       7.69674712      44.16583935      -0.18558172       0.37794349      -0.38286377      -0.49571633      -0.54092211      -0.42953932
C        9.74040432      28.93294540      21.29039245       0.83361945      -1.03423838       0.00813584       0.41178098       0.06953839       1.28984046
C       10.94893824      27.96552203      21.29702449       0.30139679       0.06851682      -0.30223016      -0.02750957       0.33059534       0.42126176
C       10.03273048      30.37874485      21.83082339      -0.14406458      -0.25421620       0.30986602      -0.45585901      -0.89271379      -1.41833663
H        8.99922696      28.46263044      21.99569096       0.11264673      -0.01894132       0.26380470       0.33970091       0.47959864      -0.93382823
H        9.33771042      28.95855819      20.27032826       0.18510702       0.22961858       0.22178965      -0.13900450       0.08843289       0.43935043
C       10.51626688      26.67024152      20.67722751       0.10530071       0.48456391       0.35011945      -0.45973620       0.09707311      -0.26332998
C       12.09528807      28.53595499      20.52531533      -0.55250787      -0.38388512       0.90938584       1.30421734       1.25370622       0.71663976
O       11.38025506      27.69118649      22.67210516      -0.88646393      -0.25148295      -0.41031481      -2.00866032      -0.07286592      -0.38283309
H       11.26638791      25.88635365      20.62956922      -0.03090832       0.18842736      -0.12218760       0.20897891       0.18907779      -0.07335046
H       10.10760646      26.92829247      19.70960691      -0.11269285      -0.14049068      -0.16244354       0.09133346      -0.43151927      -0.38214213
H        9.69458488      26.32360129      21.26275628      -0.09286712      -0.14326790      -0.09107429      -0.69956279      -0.62014544       0.41124400
H       11.88384772      28.75952318      19.48933685       0.14011562      -0.06506824      -0.02384482      -0.43059790      -0.44127849      -0.27609861
H       12.93405259      27.81425154      20.56936168      -0.34012610       0.07591050       0.04083030      -0.17579895       0.73630452       0.00798106
H       12.34951553      29.56044794      20.92849600       0.27610957       0.01281933      -0.17319093       0.22927260      -1.38042676      -0.13814433
H       10.52472720      27.34582858      23.08170369      -0.01500825      -0.14544290       0.07667045       1.65328574       0.48141295      -0.27358413
H       10.54645608      31.01850559      21.09837163       0.12016302      -0.06352123      -0.00338195      -0.19235854      -0.32382092       0.15915756
H       10.63264860      30.37390094      22.71947166       0.13561546      -0.17308706      -0.18407154       0.13014884      -0.16873127       0.57151210
H        9.05289519      30.80107376      22.01186098       0.06706283      -0.18329142       0.09226408       0.02573923       0.39016634       0.20597279
C       11.22016723      10.84926449       6.32414208      -0.11538116      -1.23957920       0.25860344       0.13530406      -1.55086517       0.75703520
C       10.64146590      12.10726707       6.90735488      -0.09195035       0.39287669      -0.10299459       0.53018296       2.38653374      -0.03311154
C       12.58972418      10.92126673       5.64331034       0.68848175       1.05097253       0.10330851       0.82434267      -3.18138599       0.57021719
H       10.53060929      10.54044302       5.56558712      -0.27069119      -0.07500416       0.02756415      -0.36618769      -0.12340093      -0.62517548
H       11.05240628      10.00887738       7.09653195      -0.12527915      -0.15805368       0.04770614       0.94967622       1.32752252      -0.86795294
C       11.37344944      12.64530093       8.19175882       0.17018641       0.63552603      -0.50171116       0.62035716      -2.51995468      -1.10609555
C       10.60816309      13.32034846       5.90073717       0.57088818       0.85423132       0.71008192       1.75109518       0.34139186      -0.35356033
O        9.30368365      11.81202364       7.29191477      -0.05894412       0.69462001      -1.16592194       0.07081294      -0.01048170       0.03547700
H       10.62236728      13.17512168       8.68458853       0.10480157      -0.08779166      -0.00557176      -0.78926122       1.15779448       0.92981184
H       12.29669838      13.21845351       8.01980276      -0.13282671       0.24947840       0.00306970      -0.62007833      -0.11675980      -0.19729345
H       11.63191148      11.76161741       8.80839591      -0.21724074       0.01576500       0.29275066      -0.09841858       0.48830664      -0.13782136
H        9.96187037      13.25949113       5.03336435       0.15706200      -0.03377866       0.15531789      -0.19347472      -0.81197244      -0.01547370
H       11.67498370      13.46452828       5.44908570       0.00837390      -0.06104878      -0.02381406      -1.87300944       0.10702235       1.02506900
H       10.23625274      14.24940689       6.38526603      -0.09302380       0.33733067      -0.00386077       0.69111168      -0.63125640       0.06803794
H        8.90816991      11.43046892       6.50069694      -0.10748216       0.00055607       0.09363209      -0.32285023       0.04386126       0.24405056
H       12.86772950       9.89132682       5.15800003      -0.11404597       0.30558603      -0.07208333      -0.62999296       1.67990220       1.07323718
H       13.45626707      11.16932975       6.27148882       0.24904073      -0.07481330      -0.03655813      -0.48517615       0.10827990       0.00930136
H       12.55552164      11.55985723       4.81958335       0.06893198      -0.08053791       0.13966066      -0.02724188       1.28786075      -1.18159127
C        8.07732592     -13.91002893       7.63768646      -0.44519168       0.64877791       0.19528879       1.14394307       0.65140951       0.60733306
C        7.35029983     -14.84821775       6.73300174      -0.84619049       0.38280849      -0.52433848      -1.58980334       0.23944122      -1.64914060
C        7.97554929     -14.15990661       9.12985280      -0.00836329       0.24613944      -0.86547963      -0.31656128      -1.81621385       0.77764237
H        7.74180416     -12.89906224       7.57453019      -0.24573220       0.04935885       0.31138225      -0.58684546       0.58345157      -0.97831523
H        9.14523114     -13.85351419       7.36585365       0.07395473      -0.19333715       0.20661945      -0.46240091      -0.21533234      -0.08483713
C        7.91205834     -16.20905465       6.73263627       0.94965852      -0.85527136      -0.09169915       0.78755045      -0.94388425       0.20262319
C        5.85671558     -14.85452041       7.03671380      -0.01956217       0.71814796       0.55407543      -1.28536320      -1.26045179      -1.13988316
O        7.48239050     -14.41619969       5.34099988      -0.52376366      -0.35882969       0.34737645      -0.62437814       0.76324183       0.03394476
H        8.94765861     -16.20322500       6.47575712       0.16275921       0.02337640      -0.00423483       0.90946305       0.22370929      -0.09257782
H        7.47840139     -16.87720870       6.02867982       0.05627703      -0.14942362       0.06542088      -0.80175984      -0.25334340      -0.75930113
H        7.82864621     -16.69880418       7.67347211      -0.18460349      -0.06044242      -0.08888066      -0.11033511      -0.20054252       0.98873484
H        5.17524331     -15.37780485       6.27833663       0.26256537      -0.04665576       0.17143885       1.56335568       1.11565161       0.59030318
H        5.53861515     -13.84658434       7.08363989      -0.06009273       0.11622083      -0.13842702      -0.51994300       1.01077652       0.20122300
H        5.54636878     -15.38125037       7.91923251       0.06106799      -0.15876026       0.01277573       0.32350522      -0.01167289       0.78680944
H        6.83916211     -13.67909113       5.15558177      -0.10333017      -0.06239804       0.20407008       0.85086703      -0.62853199       0.69952410
H        7.98716350     -13.21059901       9.64266650       0.07291253      -0.05205086      -0.14003526       0.14806566       0.14705876       0.28603435
H        8.86786258     -14.75848671       9.46750838       0.00193559      -0.04436655       0.00410437      -1.19415259       0.37910008       0.00445726
H        6.98197990     -14.66447189       9.40914478       0.15095122      -0.23277784      -0.01926298       1.63477170       0.53636861      -0.27745953
C       17.42846644      -3.47230629      26.32673564      -0.11946362      -0.74819652       0.61766827      -0.89346623       1.06945693      -0.94207716
C       17.74122270      -1.97579632      26.37285330       0.14021031       0.23792021      -0.87405533      -1.93633783       1.07324004       3.14394689
C       17.05831060      -3.90243293      24.90246918       1.58756672      -0.57281549      -0.89023050       0.67381227      -0.26174173       0.30273971
H       16.68898670      -3.69053421      27.10469841       0.04215242      -0.00533487      -0.11448933      -0.30703676       0.08912547      -0.57144421
H       18.27820509      -3.97967749      26.67048022      -0.27566138      -0.11271843      -0.21402103       1.35716295      -0.60104871       0.23759843
C       18.90970321      -1.51480839      25.61045522       0.11921649       0.16211410      -0.72805108       0.48789373       1.31222928      -0.20670447
C       16.51888986      -0.98262352      26.13325443       0.02469047      -0.96689683      -0.05894031       1.52742505      -0.55569500      -1.16581750
O       18.15308853      -1.69955026      27.79556891      -0.89335705       1.28567919      -0.24374831       0.45732921       0.04280584      -1.23535013
H       18.64188150      -1.34130926      24.58738319      -0.07502113       0.10548036       0.06908141      -0.13219370      -0.00822671      -0.70451117
H       19.69324380      -2.25377646      25.62770905      -0.14642805      -0.22790550       0.20036937       0.57672393       0.08963416       0.22820848
H       19.17560018      -0.50403261      26.03394288      -0.16189675      -0.25865511      -0.06659526       0.20799826      -1.27712560      -0.44572741
H       15.95529974      -1.12430514      25.20733922      -0.05632528       0.20383788       0.11048895       0.22324082      -0.19937500       0.05040057
H       16.87736851       0.03990602      26.14530453      -0.06441659      -0.07951397       0.25300331       0.48322493       0.12085018      -0.29685214
H       15.85471084      -0.96720833      26.93368267       0.22909591       0.19422803       0.19077194      -1.27660406      -0.65148634       1.44841719
H       17.48593726      -1.92868425      28.44255170      -0.31207511       0.26507748       0.16872644      -0.51762408      -0.41623607      -0.14862038
H       16.24276786      -3.32737051      24.54168306       0.09211792      -0.07050873       0.00458425      -0.87206757       0.39334926      -0.29119593
H       16.81828013      -4.94884912      24.82459451      -0.07425659      -0.13075956       0.09013011      -0.27589098      -0.42199254       0.14410126
H       17.86557673      -3.75219757      24.17782835       0.07483470       0.19907761       0.01162974       0.05585884       0.15453152       0.40980214
C        4.36729866       4.94760826     -17.24305874      -0.74697494       0.25169022      -0.45911251      -0.18888754       1.32541716       0.07651705
C        3.96366044       3.95154612     -16.17684050       0.46610030      -0.24440785      -0.35969493      -0.21099415       0.99572015       1.61548400
C        5.02930558       4.46554777     -18.53149306      -0.43283964       0.34170865      -0.36222830      -0.20994498      -0.72018087       1.03731728
H        5.01448076       5.73285591     -16.75916902      -0.15307137       0.10747897       0.14125587      -0.23555249      -1.62091875      -0.36312035
H        3.51199703       5.58580374     -17.37558087      -0.00616191      -0.12880462      -0.13143797      -0.78363878      -0.07300055      -0.72626388
C        2.87470847       2.95904710     -16.53566365      -0.43578497       0.54641470      -0.12366909      -0.52282602      -1.10553229      -2.26422167
C        5.27231026       3.41390127     -15.52793084       0.31136616      -0.10106960      -1.04396563      -1.95632148      -0.39484447      -0.27482513
O        3.32754638       4.77689338     -15.13293441      -0.76345763       0.06334217       0.31023962       1.66621912      -0.15719119       0.81399280
H        2.04186247       3.54259263     -17.00169235       0.07385853      -0.08799823       0.06841215       0.54472959      -0.22532439       0.56725115
H        2.39849105       2.39749352     -15.66279968      -0.19701266       0.10291875       0.04356788       1.15848660       0.57358384      -1.24564171
H        3.19592076       2.30555893     -17.45402629      -0.31776852      -0.29389507       0.14682590      -0.44477689       0.58914268       2.02482152
H        5.91585941       4.24819018     -15.27658529       0.32911071       0.10192717       0.09889972       0.07642758      -0.05753936       0.08749522
H        5.74329218       2.72881119     -16.22373706      -0.24285869      -0.11322928       0.00963813       0.15049395       0.11707155       0.03435455
H        4.94123268       2.85979059     -14.65376486       0.18216705      -0.18854539       0.08465775       0.44781435      -0.05843647       0.24166900
H        2.40450206       4.97731916     -15.25676885       0.09122101      -0.00070843       0.16443451      -0.47593373      -0.37355953      -0.68231183
H        4.40383237       4.15061379     -19.37456076      -0.05033751      -0.19375669      -0.36947075      -0.07916061       0.27637666       0.42315120
H        5.62174101       3.60393065     -18.22213632      -0.04511544      -0.07484454       0.10582430       0.29700434      -0.03137299      -0.45442003
H        5.68158722       5.25901351     -18.81723519       0.08688540      -0.21977963      -0.00963259       0.48013920       0.09038588      -0.53857356
C       14.80825421       9.18755637      39.25548385      -1.11743825      -0.37662430       0.24100756       1.30271685       0.54167402      -0.04434359
C       13.46350625       9.05274555      39.91302398       0.41401466       1.35252900      -0.40914277      -0.31943473      -1.29724407       2.17526388
C       15.58781685       7.90851689      38.94020944       0.14491457       0.06778259       0.62386113      -1.48287702       0.17744435      -0.74153030
H       15.52336807       9.78006482      39.83791550      -0.10157973      -0.19159412       0.03107749      -0.42619389       0.03488244       0.49975270
H       14.69828324       9.83289284      38.41614156       0.48017156      -0.06357563       0.23188609      -0.29634449       0.31837660      -1.24262905
C       13.61637396       8.14775030      41.22260077       0.75914701       0.83445642       0.76120186      -2.00109911       0.97530717      -1.99980712
C       12.83710267      10.43944265      40.28720337       0.55612024       0.02776154       0.00771876       1.06162953      -2.36298180      -1.29980516
O       12.55217629       8.39848804      39.02624074      -0.26974307      -1.25934421      -0.74222099       0.24610570       0.07133079      -0.38924795
H       12.63732432       8.05018416      41.65836500      -0.10368188       0.03672786      -0.02829717      -0.44814569       0.08788674       0.15777537
H       14.20215410       8.64616226      41.92211048      -0.05562287       0.08659992      -0.05304661       1.20861888       0.94777983       1.17529047
H       13.96992876       7.15479769      41.11011156      -0.27560443      -0.22623176       0.12290454       0.51167846      -0.75025183      -0.61524111
H       11.92484116      10.31492492      40.86243282       0.23667646      -0.02286220       0.12281821       0.33273494       0.23002125      -0.07071009
H       12.65580764      10.77580441      39.28001599       0.25570233       0.17412705      -0.07026980      -0.47912413       1.03854847      -0.09880766
H       13.66061933      10.96320504      40.70948341      -0.02629657       0.07709462      -0.10235975      -0.13536641       0.94722503       0.81400764
H       12.54543742       8.91199621      38.19953449      -0.11704117       0.23854882      -0.04320117      -0.19581193      -0.30140185       0.28267881
H       15.89369683       7.57375369      39.89446907       0.05555684       0.02316688       0.07973043       0.87362337      -0.79037619       0.68147647
H       16.42653480       8.08944067      38.26476356       0.05351776       0.15562105      -0.21710004      -0.12075321      -0.08153661       0.28547776
H       14.92845466       7.13281155      38.52043552      -0.20774007      -0.29927861       0.07053101       0.32733655       0.27332410      -0.04165184
C       -5.30304593      29.22623787      19.63771364      -0.26332002      -0.07670120      -0.54596957      -2.25910544       0.47668207       0.25062466
C       -5.40672405      27.86413805      18.98942172      -0.02906387       0.12715947      -0.44451282      -1.46811366      -1.49275804       0.97998345
C       -6.02174605      29.41327060      20.98860325       0.60571123       0.10646353       0.05798755      -0.51780957      -2.13746667       1.22493410
H       -5.74129813      29.97871614      18.96034249       0.11893954       0.25555331       0.13468909       0.44733590      -0.30438191      -0.06586374
H       -4.28132133      29.43383417      19.76977896       0.13274912       0.05267598       0.17659026       1.39725399       0.40430665       0.07145849
C       -4.73993396      26.76241129      19.88485949      -0.66407169      -0.06583086      -0.31598319       1.90797615       0.67835093       0.76130581
C       -6.91334542      27.39289941      18.78744409       0.46751671      -0.13283029       0.27781821       1.12094378       0.01089524      -2.55900455
O       -4.79387670      27.99996677      17.71724556      -0.43809140       0.59403602       0.65172747       0.08844054      -0.92139304      -0.11486748
H       -3.61426874      26.82215476      19.85481259       0.09527188      -0.11108825       0.26096529      -1.04402769       0.27660832      -0.27117378
H       -4.93768738      25.74052799      19.56918179      -0.26865349      -0.14621119       0.00524517      -0.46688417       0.08087364      -0.03809826
H       -4.93995776      26.88302879      20.98924309       0.06615212      -0.24353469       0.13595298      -0.33097363      -0.21941182      -1.36089742
H       -7.38600160      28.09543287      18.04195058       0.26959419      -0.01215821       0.05041336       0.33693609      -0.64099872       0.85281044
H       -7.46175438      27.42034460      19.70405307       0.09664762      -0.09981300      -0.10861260      -0.30056745      -0.26682520       0.48725075
H       -6.92526158      26.35132938      18.27000735      -0.13075460       0.20752803       0.09991196       0.00785831       1.77447939       1.19302952
H       -4.93992358      27.13861562      17.27638470      -0.28869305      -0.16109077       0.02752582       0.32716796       0.43963981      -0.17578232
H       -5.88055260      28.47843799      21.65094466      -0.03287737       0.18207314       0.16274876       0.29056841       1.70812583      -0.87521780
H       -7.15552719      29.41034679      20.98967451      -0.25976644       0.10067448       0.25406997       1.37488294       0.64413309      -0.59868097
H       -5.58419217      30.28620083      21.50999167       0.29137612      -0.05282381       0.01198904      -0.62206167      -0.45177257      -0.13344581
C        5.38925987       6.72140026       1.63548797      -1.01965539       0.01313088      -0.12089428       0.44224286      -1.58819437      -0.61692226
C        4.73775374       7.95978999       2.24570538      -0.21992405       0.14272837       0.92266647       0.97795755       0.48077726      -0.43758002
C        6.27071880       6.95696008       0.37532878      -0.80242869       1.46457674       0.67160998      -0.55404490      -0.48185855       0.03958744
H        4.64174864       5.86023369       1.40793514      -0.24737428      -0.21314049      -0.03730903       1.02550554       1.69068980       0.45077157
H        6.03823142       6.34127376       2.44968318      -0.01205304      -0.18066272       0.07500472      -0.39481986       0.04460377      -0.62594700
C        4.15394617       8.93204815       1.20591425      -0.68777795      -0.72608814      -0.26892214       0.00904101      -0.32122487       0.89051521
C        3.75974632       7.57948446       3.30097129       0.07224728       0.70296006      -0.03284771      -2.30690598       0.11975680       1.93689561
O        5.79621167       8.71712181       2.94172700       0.23514484      -0.67370005      -1.67862792      -1.08441818       0.66946268      -1.71259999
H        3.24448485       8.46832586       0.83598479       0.00299867      -0.08544623       0.34701088      -0.12849182       0.18646151      -0.02807180
H        4.82354093       9.04719870       0.35662940       0.01759676      -0.19976905       0.03910098       0.01712088       0.28133345       0.21075584
H        3.92923277       9.89656126       1.71218029      -0.01210695       0.44820657      -0.03801706       0.09134930      -0.67342567      -0.60690463
H        3.26137053       8.47549043       3.68800241      -0.09215194      -0.35118672       0.07771072       0.41944510       0.17935732      -0.09427027
H        4.18359698       7.12404309       4.21684805       0.10331576       0.16843119       0.10729587       0.21022996       0.18818772      -0.91094995
H        2.84739830       6.98298712       3.07236475       0.36885651      -0.25122613       0.04400490       1.08493972      -0.06086517      -0.64344215
H        6.23452585       8.13079465       3.52710313      -0.06900754       0.12531860      -0.05494271       0.71868479      -0.90832394       0.93461734
H        6.85898055       6.08929587       0.06148039       0.01168801      -0.06734753      -0.25515835      -0.32747808      -0.13738845       0.40710565
H        7.01217427       7.73583426       0.49903807       0.04301935      -0.31165624       0.17742053      -0.14289330       0.42549658       0.19588900
H        5.64186954       7.16372685      -0.49267500       0.10331431       0.16923181       0.00557648       0.22085053       0.21219328       0.13624957
C        8.29484823       8.15009647      17.50747922       0.64363495       1.10980574       0.82684924      -0.99806857       0.12901883      -2.65272975
C        7.04291591       9.04867605      17.75708354       0.13562256      -0.22655968       0.83218515       0.13453647      -1.18335605      -0.04313087
C        9.53196462       8.49389183      18.30084748      -0.72884333      -0.21145037      -0.33934099      -1.14550734      -1.53666162       0.45413888
H        8.54651816       8.21742671      16.40862858       0.27743631       0.10008297       0.04597224      -0.37018365       0.17828465       1.04582608
H        7.90975477       7.10510566      17.52383431       0.20379643      -0.08683883       0.26279615       0.65779936       0.58939755       0.78578579
C        7.33450495      10.54180273      17.59936570      -0.50405094       0.09718040      -1.17918827       0.64797777      -0.38180786       2.01075888
C        5.85589141       8.54700240      16.81666737      -0.25196381      -0.93254432       0.73143242       0.38088724       0.51948810       1.35736775
O        6.70822845       8.77526811      19.12666020      -0.13180837       1.02820044       0.46682338       0.19574177      -0.15848471      -0.30461460
H        8.25806072      10.88916959      18.12418333       0.23417186       0.00424969      -0.09203142      -0.70413953      -0.70588833       0.01292938
H        6.53960487      11.17614996      17.98301654       0.02510667      -0.05450655      -0.04692471      -0.22991180      -0.19633391      -0.42808527
H        7.57899299      10.68593786      16.61090210      -0.05371079      -0.06382365      -0.33280179       0.06791544       0.73676383      -2.39038348
H        4.93523603       8.90256680      17.29514582       0.36220666       0.07688637       0.12037156       0.01649940      -0.15287268      -0.26431233
H        5.75303921       7.45960877      16.62215141       0.11983899       0.22823958       0.14145603       0.55109477       0.77822888       0.45798600
H        5.93489193       9.03446024      15.87449022      -0.24534931       0.07420139       0.18478007       0.07091803       0.39991826      -0.85102588
H        5.85314802       9.15506487      19.33663957       0.38696361      -0.25341107       0.02102933      -0.10539342       0.49370521       0.11284485
H        9.19467590       8.65412695      19.31586156      -0.00349985      -0.02718125       0.13912354       0.46237537      -0.29455501       0.45788813
H        9.95182568       9.39719037      17.97430759       0.08202348       0.29597988      -0.15749527       0.63662624       1.12938035      -0.66554511
H       10.25111661       7.68073816      18.17052047       0.00649177      -0.02013590       0.15637486       0.04122114       0.30754218       0.44233334
C        9.76524876      10.48129580      12.15767258       0.18684504      -0.17746729       0.45583263      -1.69405985      -0.78727502      -0.04526171
C       10.12969023       9.38435252      13.15944467      -0.27572543      -0.54590884      -0.56957012      -1.33566594       0.55814803       0.27711821
C       10.32729240      11.81533519      12.49802121      -0.22123459       0.46551166       0.03228924      -1.13098276       2.27987742      -0.27430695
H        8.63861629      10.52204599      12.15555521      -0.12195295      -0.08447392       0.24993806       0.98359144       0.12229733      -0.21144226
H       10.06209804      10.24982340      11.13926494       0.17510707       0.26036619      -0.12792270       0.09033130      -0.59788996       0.03229915
C        9.62889784       9.86801634      14.55950570       0.70249232       0.37276256       0.75991495       0.70505804       0.29978189       0.01462579
C        9.44700972       8.07799485      12.72851012       0.08249119      -0.30843292       0.38847053       0.12146705      -1.24834418      -0.49816352
O       11.51256022       9.27480271      13.14296222      -0.16468122      -0.60022006      -0.09848481       1.20347226      -0.52929032       1.68583655
H        9.84363619       9.07113585      15.32255128       0.08371065      -0.28881972      -0.17525182      -0.19112653       1.11430740      -0.65212107