1344
Lattice="24.66721259926962 0.0 0.0 0.0 24.66721259926962 0.0 0.0 0.0 24.66721259926962" Properties=species:S:1:pos:R:3:momenta:R:3:forces:R:3 mol_liquid.pdb=T energy=-544179.8125 free_energy=-544179.8125 stress="-0.0007368279621005058 -0.0008001317037269473 -4.397198063088581e-05 -0.0008001317037269473 0.0025075587909668684 0.001382374088279903 -4.397198063088581e-05 0.001382374088279903 0.0017371808644384146" pbc="T T T"
C       -1.21465399     -21.34111722      -6.46138948      -0.01222863      -0.72788894       0.40478412       0.16746581      -0.04477683      -0.28810525
C       -0.04744998     -22.17576718      -5.97844235       0.19199232      -0.60244382       0.21468764      -0.46203160       0.00963246      -0.44824028
C       -0.80658845     -19.85798051      -6.50170824      -0.34546009       0.32917473       0.51351457       2.04017687      -0.30473244      -0.18908739
O       -1.50605983     -21.75170038      -7.79021582      -0.19023719      -0.41868147      -1.48356941       0.90392375      -0.74600935      -0.03211476
H       -2.05650413     -21.65784252      -5.83760461       0.11967969       0.12031607      -0.03758548      -0.03209350       0.94176525       0.10463514
H       -0.28124563     -23.23212862      -5.96964692      -0.10106559       0.09829308       0.03357072      -0.14614904      -0.18896049      -0.17404446
H        0.17300675     -21.89748077      -4.97098682       0.30839233      -0.10615132       0.09044958       0.48328206       0.27836648       0.59977865
H        0.76468824     -21.99111660      -6.65789062      -0.02208129      -0.09056501      -0.23911999       0.65403676      -0.06312798       0.00528789
H       -1.52847771     -19.12452378      -6.72329754       0.20807361       0.09354222      -0.01558801      -1.26494133       0.44279289      -0.71012962
H        0.10040225     -19.68003748      -7.17746632      -0.09008073       0.16510223      -0.21231733      -1.47404933      -0.65872127       0.41071796
H       -0.39566481     -19.50321976      -5.57921406      -0.06422228       0.05289398       0.24863377       0.07487914      -0.21446097       1.05179393
C       -2.81996475     -21.72923973      -8.19245787      -0.01116861      -0.64630392      -0.75597779      -2.80687189      -0.04505486      -0.35283989
C       -2.85470451     -22.00863060      -9.68690040       0.06165411      -0.17686232      -0.55496057       0.79529530      -0.50937420      -0.71778548
C       -3.80534447     -22.68074928      -7.44883472       0.08593886      -0.56957260       0.43801886       1.51111007      -1.75614452      -1.44191504
H       -3.24792138     -20.74531368      -8.11744608       0.13389675      -0.02835228      -0.07717486      -0.00125556       0.96581852       0.43767840
H       -3.76575613     -21.73188045     -10.24723338       0.40461399       0.03687450       0.20352192       0.12646098      -0.19246316       0.79548335
H       -2.62006227     -23.08964578      -9.89578044      -0.02867472      -0.25124663       0.10256807      -0.06535076       1.13799214       0.05355538
H       -2.07144878     -21.34418361     -10.07504250       0.09746361      -0.13575272      -0.13431339      -0.08381186      -0.56905740      -0.31149566
H       -4.77496033     -22.72231686      -7.96797283      -0.05054568      -0.12485253      -0.42138716       0.17890060       0.56071877       0.58737075
H       -3.84665457     -22.59952731      -6.36937445      -0.00985596      -0.17052438       0.05492318      -0.30850023       0.24082986      -0.05739206
H       -3.38764143     -23.69792721      -7.69357915      -0.20502032       0.05930889      -0.06869910      -0.34489036       0.62180036       0.57389927
C       28.40504862      -6.39794650      16.37401143      -0.80041153      -0.10312315       0.78431074      -0.98416328      -1.02445054      -1.24096179
C       27.17531614      -7.06617376      17.01665657       0.88618672       0.12260310       0.52570282       0.52390546      -0.74561048       0.33543122
C       28.42349885      -4.91308224      16.66756388       0.86747304       1.43655819       0.87529635      -1.57249439      -0.93971395       2.19955778
O       29.58655261      -7.07739735      16.87764177      -0.51636635      -0.66550301       0.05020353      -1.58462524       0.62627041       0.20926303
H       28.20918447      -6.62095430      15.27788651      -0.23327573      -0.13674652       0.14095294       1.15738928       0.49194241       1.11558294
H       26.24529120      -6.49902748      16.90166413       0.05792510      -0.18759240      -0.06218340       0.47176963       0.08639943       0.24718378
H       27.42295435      -7.29243052      18.07073279      -0.15090411       0.15674812      -0.11073366      -0.45967805       0.35196781      -0.41280600
H       26.99301819      -8.02714478      16.52475948      -0.10943471      -0.06924285      -0.26909819       0.10365670       0.10139710       0.11660877
H       29.40113513      -4.51445936      16.64799713       0.05853085      -0.01274920       0.26588103       0.82158357       0.62078136      -0.21791670
H       28.04945593      -4.89150386      17.75134472      -0.24451747       0.05427142       0.01552922       0.57962823       0.63026780      -1.39968073
H       27.71186280      -4.37635142      16.03763800       0.17973141       0.07285154      -0.22845341       0.24453035      -0.03307588       0.24230041
C       30.57432190      -7.39743615      15.94752282       0.61285708      -0.26895765       0.10019963       0.56066173      -0.58627367      -0.02187122
C       31.46005486      -6.19846010      15.61305974      -0.03093425       0.81491452      -0.00985907      -0.32302809      -1.26390350      -1.12056327
C       31.36745661      -8.56729456      16.61759703      -0.16657620       1.00156446      -0.65743202      -0.24169971       0.97036564      -1.10099041
H       30.09148600      -7.67884903      15.01933325      -0.06074443      -0.23020613      -0.06101231      -0.09298541      -0.49500850      -0.17409036
H       30.84636174      -5.32457374      15.49310415      -0.14920554       0.22768335       0.15894177       0.05647598       0.41946131       0.16783020
H       31.95562541      -6.38288163      14.64029067      -0.05999820      -0.06230421       0.16946120      -0.02328474       0.10807642       0.56977814
H       32.17783931      -6.15736807      16.38896415      -0.00472375       0.04304635       0.15793407       0.85890818       0.79918671       0.67810023
H       31.51840102      -8.27058546      17.65594769       0.29071104       0.17123829      -0.23700521       0.22652614      -0.16307348      -0.12513219
H       32.30315868      -8.70925318      16.07982466       0.08162990      -0.27620791      -0.28515367       0.23763797       0.09609443       0.24310979
H       30.84903840      -9.51510479      16.57442306      -0.15249899       0.18362956       0.22819789      -0.27721336       0.07842130       0.07805064
C       23.83018917     -11.09827434      18.01701626      -0.36867439      -0.35025763      -0.23794019      -0.05733393      -1.25453424       1.11225653
C       23.93819150     -12.48388150      17.39117505       1.62058387       0.99301521       1.38295446      -2.57929277       1.56081057      -2.37484312
C       24.90987384     -10.94282015      19.06479580       0.05832145       0.89310056       0.05959013       0.32202524      -0.59888804       0.66728485
O       23.97058607     -10.08591901      17.09173248       0.71024809      -0.11253258      -0.14239930       0.25115153       1.20613551      -0.71259159
H       22.85477127     -10.96924619      18.46141711      -0.19598191       0.20997391      -0.04088788      -0.41555604      -0.31161964       0.49290061
H       23.06452098     -12.42790174      16.63831471      -0.21689948      -0.16291729      -0.11097280       1.57392502      -0.57944155       0.49533552
H       23.62775907     -13.28352306      18.00517084       0.06680760      -0.34213498      -0.08900517       0.25323397      -0.82877409       1.07730293
H       24.88233163     -12.61904498      16.87668268      -0.23347639       0.26886540       0.41307900       0.01314604      -0.18673605       0.10019204
H       25.87504092     -11.08165294      18.52611295       0.11123256      -0.15704615      -0.02664356      -0.44644946      -0.02770545       0.84882712
H       24.77111161     -11.61553915      19.97719425       0.08714917      -0.22828577      -0.14605106       0.33404636       0.41835117      -1.63574696
H       24.86976624      -9.96285070      19.48890397      -0.00156515      -0.08994465      -0.23160884       0.17985055       0.84589356       0.04059951
C       22.98245812      -9.88322604      16.06119900      -0.53696583      -0.61166950      -0.14644467      -1.24520469      -1.44174349       0.67175734
C       21.48783855      -9.81486274      16.60157446       0.02298121       0.90335926       0.35269273       0.51989913       0.38319123       2.73417664
C       23.41031481      -8.62024340      15.43236394      -0.50296815      -0.34130803      -0.08050002       0.53910232       1.82921100       1.29133952
H       23.16594926     -10.73579393      15.33970977      -0.01349130      -0.08596242       0.34161592      -0.85647255       0.80794722       0.54218197
H       20.71661817      -9.65504536      15.87865086      -0.42076891      -0.19197381      -0.01433813       0.03275628       0.39204651      -0.93317914
H       21.30722909      -8.98021735      17.45777743      -0.01049655       0.03301772      -0.10030258       0.83807826      -1.82992768      -2.24361396
H       21.16186381     -10.76099639      17.08012760       0.01089741       0.10998325      -0.28731071       0.45518672       0.33519948      -0.19486001
H       23.31744119      -7.74550365      16.18511949       0.08236007       0.05949582       0.11509452      -0.14686428      -1.38025355      -1.37863278
H       22.93788557      -8.40816690      14.48668009       0.06474793      -0.06563986      -0.01682330      -0.23287134       0.12645771      -0.12566742
H       24.46155769      -8.79788133      15.30917377       0.01085243       0.05098711       0.12366423       0.64653623       0.48310977      -0.58990878
C      -14.56249121      12.90163861      64.35975650      -0.37401873       0.13609072      -0.67868667       0.73224938       1.14604080       0.55345857
C      -15.98412053      12.74044815      63.86924166       0.24729696      -0.38099275       0.16357060      -0.00633131       0.13016196      -0.26771575
C      -14.40217242      12.16759935      65.67074239      -0.23984951      -0.48622330       0.24663514       0.59468585       0.17457040       1.80992305
O      -13.74958503      12.38590927      63.29656895       0.32127848       0.50508936       0.19163464      -0.74120516      -1.31724119       0.49834001
H      -14.24015317      13.93394136      64.63959575      -0.22470331      -0.10680062      -0.00342912      -0.52991164      -0.42824781      -0.82319266
H      -16.78126200      13.28125099      64.36089079       0.07977272      -0.06936647       0.03540433       0.19500796       0.46161166       0.33290225
H      -16.18013924      11.70926375      64.06040259       0.05815728      -0.03394046       0.03148052      -0.49470416      -0.91582561      -0.23361544
H      -16.03991114      12.90838766      62.79845072      -0.24504267      -0.08412182       0.02193837      -0.01010499       0.11835563       0.02006632
H      -15.20189035      12.51186727      66.37125275       0.14780516      -0.07950369      -0.09064063       0.46881583      -0.43327826      -0.64217865
H      -13.45750415      12.32059602      66.27058723       0.34010895       0.09260687       0.07839796      -0.66316485       0.19799487      -1.07943738
H      -14.44341136      11.10357641      65.53982895       0.07087705      -0.12300110       0.03789054      -0.56079179      -0.26749903      -0.12979327
C      -12.66978513      13.16026731      62.90735693       0.20175620       1.13526850       0.23979453       1.88179374       0.24610108       0.17634402
C      -11.73576356      12.38045359      61.88636458      -0.51021061       0.16214568      -0.05085956      -2.38697648      -1.03604066       0.96933174
C      -13.19604769      14.46580267      62.39653654      -0.18209961       0.08914903      -0.45923387       1.16619742       0.77938432      -2.55211210
H      -12.03124913      13.32564445      63.83025611      -0.04307023      -0.12767413       0.07088911      -0.41810611       0.05728751      -0.87505007
H      -11.90263548      11.29328428      62.03641794       0.03849317       0.00437252       0.12045643       0.14962712       0.63093096       0.07754660
H      -10.74133698      12.58342502      62.10898053       0.09231420       0.03490130       0.37102457       1.64216828       0.38323456       0.45541829
H      -11.84661243      12.53168171      60.82585591      -0.06942082       0.02987592      -0.12539568      -0.63622975       0.56115562      -0.28346062
H      -13.94674761      14.31168592      61.57913657       0.07734030      -0.09108432       0.15112521       0.78072298       0.06545532       0.60508358
H      -12.40468325      15.17529051      62.05573471       0.15210711      -0.02739650      -0.17453478      -0.27997971      -1.13726974      -0.29814136
H      -13.62157723      15.08429187      63.11212117      -0.23421771      -0.14954535      -0.04918745      -1.21520758       0.66982961       1.63601375
C       30.46403788      12.84609452      19.18664715       0.51123089       0.06001726      -0.18298408      -0.34373221      -0.73122728      -0.06307849
C       29.52219911      13.29487155      18.07334779       0.06684815      -0.84830545       0.53000492       0.27093127       1.94697666       1.46373355
C       31.88157595      13.11638684      18.77485204      -1.26124412      -0.57050198       0.06689240       0.29236770       0.68262088      -0.61079776
O       30.20233963      13.43948674      20.45431103      -0.09332818      -0.29610956       0.15055960      -0.21131355       0.61386669      -1.06287217
H       30.32588085      11.78922280      19.31991001      -0.12138175      -0.07400757      -0.04010744       0.01662533      -0.69899774      -0.08210060
H       28.48167675      13.04749675      18.23627725       0.15449442       0.15021380       0.01277966      -0.07686243      -0.44981766      -0.05875984
H       29.93975344      12.88144392      17.17352044       0.14281520       0.14029712       0.01977705      -0.32796532       0.11670870      -0.63470483
H       29.55147243      14.42348296      18.11145229      -0.07371009       0.07135651      -0.02000522       0.01745541      -1.13834763      -0.57404017
H       32.62539638      12.86533993      19.53498636       0.11618977      -0.10437995       0.11939543      -0.20194829      -0.46244416      -0.40098366
H       31.91624299      14.19229386      18.71823467       0.10561172       0.23998482       0.14194359       0.31223258       0.55441111      -0.27098200
H       32.08270828      12.73760491      17.73295586       0.14205690      -0.23707297       0.36584252       0.04478493       0.11523584       1.31673479
C       29.57736136      12.54680525      21.32982515       0.59123328      -0.33500379      -1.81654868       1.88880455      -0.91418993       1.99040020
C       30.68521350      11.49586386      21.79335694      -0.58689818      -1.37548403      -0.31085910      -3.00232172       1.74038363       3.36435080
C       29.05388354      13.36719932      22.50365785      -0.65513160      -0.00812342      -0.66582612      -1.45703852      -1.36263537      -0.54575634
H       28.76994779      12.00187544      20.86367537      -0.01861094       0.07135550       0.04410614      -0.39507067      -0.05530136      -0.31106696
H       30.87836911      10.81761086      21.06989168       0.04755968      -0.09539274      -0.06587231       0.98827624      -1.87759376      -2.28465199
H       30.36558950      10.90643273      22.69470462       0.14371289      -0.33431776       0.04126632      -0.16056272       0.44103968      -1.00864041
H       31.52793116      12.02510841      22.17794684       0.01676707      -0.01346760       0.10240405       0.79630220       0.45934784      -0.33064654
H       28.30041295      14.05772285      22.10289758       0.05435332       0.15811291      -0.14530554      -0.02839317      -0.24259010       0.47213906
H       29.79269416      13.92272902      22.98542509      -0.01805945       0.06962310      -0.36877614       1.51780546       1.01059592       0.41865975
H       28.67571169      12.69741845      23.30323637       0.25947953      -0.33790795      -0.02644417      -0.30282050       0.40339398      -0.70210427
C       37.47323763       8.12703944      31.64478975      -0.14887157      -1.04899926       0.06431276      -0.95338750      -0.79235953       0.61933804
C       36.48207486       8.23035197      32.83565058       0.63134063      -0.69901670       0.73230716       0.40695170       0.37122956      -0.40490991
C       36.75317306       8.21248233      30.30447563       0.23280907       0.20792672      -0.51135464       0.67041743       0.17483330      -0.24019074
O       38.30033930       9.26637910      31.73040955       1.18147065      -0.53937014      -1.33417385       0.85193205       0.82553315       0.00730349
H       38.05123087       7.17772648      31.72832226      -0.13943689       0.09322567      -0.04483264      -0.21254148       0.62698978      -0.10376166
H       37.05434044       8.20656578      33.76208365      -0.19492704      -0.09111247      -0.19500949      -0.08147477      -0.08620050       0.08673509
H       35.71626695       7.45123097      32.86558689      -0.05195861       0.15733173       0.12451954       0.13377027       0.13618422      -0.13925344
H       36.02807941       9.23375670      32.77027433      -0.06556981      -0.06043313       0.06474272      -0.05944623      -0.52660108       0.04679591
H       36.44345292       9.26348805      30.21573308       0.08118135      -0.19320818       0.05546545      -0.18717542      -0.55092502      -0.21108177
H       35.93638666       7.51640072      30.14086986       0.02135915       0.00375833      -0.10976644      -0.08597367       0.17064255       0.62034220
H       37.43751074       7.97597261      29.48622998      -0.02186831       0.10357408      -0.04631039       0.19681412       0.33059782       0.08858263
C       39.62507911       9.03947742      32.25427456       1.03118700       0.24262756       0.00625991      -1.21744049       1.30523968       0.00715086
C       40.45660302       8.41275152      31.23744562      -0.57652946       0.18695974      -0.21118828       0.68710268      -1.57679701      -0.38323212
C       40.27171202      10.33807564      32.77246989      -0.32051983      -0.04866080      -0.26843831      -0.78528261      -1.04727280      -1.26281643
H       39.48641478       8.38111701      33.04486333       0.01603040       0.24839639       0.16041333       0.00202679      -1.26443434       1.82401347
H       41.45187850       8.53946417      31.59415202       0.13852968       0.11498274      -0.17799008       1.08632708      -0.23620254      -0.13089842
H       40.35097024       8.94074831      30.31567074      -0.09249826       0.14390243       0.21724760      -0.02382316       0.15822542      -0.80159938
H       40.27916704       7.32072446      31.13428760       0.05613425      -0.14586769      -0.18678428      -0.02076137       0.84298491      -0.22769099
H       40.24524346      11.01410818      31.91990474      -0.01862501       0.02695300      -0.00535141      -0.02797182       0.55772269       0.41919971
H       41.28751900      10.15435199      33.04935490      -0.17711198       0.01943291      -0.32360530       0.71208990      -0.24715583      -0.06815147
H       39.79579940      10.65284236      33.66652408       0.20271804      -0.36865420      -0.02645679      -0.76497346       0.81748539       0.43676376
C       10.33333930      17.24008567      33.81542145       1.03826279      -0.42610860      -0.18474209       0.02511300       0.93333888       0.59534270
C       11.18780121      16.17551136      34.54309972      -0.43856019      -0.50438083      -1.10358103      -0.18315567       2.47819376      -0.85904896
C       11.06983141      18.59465503      33.75667651       0.91693976       1.50545757      -0.27688812      -0.51017022       0.72973639       1.72847724
O       10.06799010      16.83479002      32.49593960       0.16835840       1.49280460      -0.13674938       1.93184996      -0.08000810       0.17370127
H        9.35023021      17.50321720      34.29573078      -0.07980205      -0.00673816       0.11072905       0.77317733      -0.77237737      -0.05797029
H       12.17234904      16.20390926      34.10091552      -0.13280314       0.28126480       0.21669338       0.36134946       0.04667852       0.06825679
H       10.82756889      15.22353214      34.44705474       0.20416949      -0.23327696      -0.25521301      -1.07705784      -2.32173848      -0.43316510
H       11.21521542      16.38145024      35.57416229       0.16000649       0.23124002       0.08868804       0.32074517       0.35450166       1.17126632
H       10.61717943      19.22665316      33.00144117       0.10041595       0.00981629      -0.28481954       0.39143774      -0.22794175      -0.46205285
H       12.15878231      18.50621474      33.70222358      -0.01657946      -0.26417349      -0.12884383      -0.24884006       0.02782446      -0.49222222
H       10.87520539      19.20986083      34.69388354      -0.24640907       0.01599075       0.01587462       0.25758743      -1.02389181      -0.77214456
C        8.82996229      16.23828868      32.30336597       0.41288208       1.04389465      -0.33561473       0.21666744      -1.00925183       0.27943110
C        8.88516290      15.73701924      30.91386732      -0.40875482       0.10835112       0.34711254       2.40777493       1.34386456      -1.57414055
C        8.52838499      15.04241574      33.20839565       0.75879604       0.66041273       1.32282388      -0.36113212      -0.20758846      -0.25187215
H        8.20384687      17.05046369      32.47549825      -0.14805899       0.01054363       0.15892952      -2.20082903       0.99626142      -0.00974444
H        8.05986565      15.29071013      30.55355436      -0.07212286       0.11075280      -0.00671933      -3.51415730      -1.17762542      -0.84184134
H        9.58707821      14.92662215      30.78658288      -0.04422068      -0.04956641      -0.02925651       0.76691824      -0.10180382       0.44388324
H        9.17717628      16.47998230      30.13584490      -0.25158149       0.00326438       0.22264866      -0.15826830      -0.16341585       0.86273324
H        8.40658079      15.20772721      34.27432361       0.22468357      -0.22104082      -0.05606368       0.45319796       0.32659993       0.00891025
H        9.35721469      14.38101734      32.98324256      -0.08395814       0.00668326      -0.04163570      -0.03912938      -0.54885715       0.45884234
H        7.58776771      14.54949367      32.92773668      -0.02120287       0.01877900       0.03361611       0.30454352       0.20334277      -0.29586005
C       11.47925820      26.54195004      13.55318598      -0.11041765       0.09893741      -0.11902073      -0.78118598      -0.48619702      -0.16106284
C       12.63476325      25.63291621      13.83456673      -0.44612374      -0.06113592       0.25335551       2.67248964       2.56675792       0.35474023
C       10.57154846      25.87751065      12.50479972       0.73397603      -0.15670398       0.02086291      -1.01830435       1.82288969       1.75115049
O       10.69851663      26.67101844      14.76840462      -0.45238327      -0.15194653       0.40035455       0.62524998      -0.04125494      -0.45499122
H       11.81083009      27.52613941      13.18673208      -0.03825734      -0.17013427      -0.24231969      -0.25962126      -0.13048662       0.24653444
H       13.20182052      25.28755219      12.97626592       0.01352831       0.33068524      -0.03841591      -0.80864853      -0.85791022      -0.24739856
H       12.25846121      25.00406420      14.58194892      -0.11646904      -0.21230028       0.11117114      -0.05816539      -1.87511802       0.48908722
H       13.47917674      26.19669552      14.32434276       0.31685612       0.14622043      -0.10431812      -0.96017253      -0.31411958      -0.13135888
H       10.41215464      24.83822925      12.68704751      -0.04981415       0.15670757      -0.02051257      -0.03766445      -0.64277840       0.23215190
H       11.01632148      26.02594841      11.56939264       0.29288706      -0.42898403       0.14823865       0.46945411       0.04144833      -1.53563237
H        9.60291985      26.41823020      12.55902885       0.16073434       0.05548551      -0.16096669       0.47525308      -0.49507928      -0.36780322
C       11.09728219      27.71953314      15.64457839       0.48812863       0.96329025       0.30648636       1.31087434       1.09273291      -0.97860301
C        9.94075939      27.92612368      16.55899670      -0.61212945      -0.74108555      -0.05809522      -1.02999187       0.27455825      -0.10840863
C       12.41199188      27.51505384      16.44948900      -0.41291421      -0.44986650       0.80155617      -2.07083559       0.74027652       1.19263339
H       11.20589636      28.61357425      14.97734628       0.03673605      -0.03248801      -0.19998482       0.10030302      -0.34360254       0.63284439
H        9.76766930      27.00286911      17.11806560       0.15464540       0.12820285      -0.13095850       0.08630235       0.45075107       0.35823530
H        9.07745522      28.05387107      15.91944509      -0.01104630      -0.07543888      -0.12217016      -0.34903190      -0.10711308      -0.14974722
H        9.95115179      28.85860412      17.14209468      -0.32395845      -0.04878673      -0.05406162       0.48307833      -0.65586257       0.18113904
H       13.29947314      27.35519425      15.92385030      -0.02359361      -0.16174830      -0.03419333       1.11815691       0.02212517      -0.99448597
H       12.25055910      26.69066743      17.12284862      -0.02116828       0.13621825       0.03810752      -0.00332674      -0.65064180       0.19166854
H       12.52900747      28.37469225      17.14060667      -0.01515480       0.07585995       0.18361601       0.03792912      -0.22984466      -0.63188863
C       12.18950669      38.94809661       3.49032891       0.72840141      -0.16060297       0.91213036      -1.28713238       0.14025359       1.81282067
C       13.13133712      40.06995483       4.01037096       0.16663713      -0.15187037      -0.13862326       1.51126552       0.19810900      -1.18349791
C       11.15425650      39.45933527       2.49475719      -0.01294297       0.21704105      -0.78728545       0.49701124       1.19031084      -0.14725903
O       12.74721267      37.78384996       2.95608981      -0.42889766      -0.04140342      -1.45009973       0.33663353      -0.02579606      -1.50553370
H       11.66754451      38.57510737       4.39197460      -0.01905044      -0.06286820       0.16580595      -0.34520745       0.73520470      -0.46434829
H       12.60080372      40.80744085       4.63468706      -0.23818085       0.06920502       0.27995839       0.01465922      -0.52844977      -0.25382131
H       13.56239439      40.63665566       3.13251678      -0.11087741      -0.22012890       0.17599548      -0.57616949      -0.60546088       0.92275429
H       14.03380140      39.70629485       4.59394759       0.13682739      -0.08107766       0.03247237      -1.24515760       0.17385249      -0.55562198
H       11.71068723      39.72245341       1.54959604      -0.15182265      -0.05041801       0.55452993      -0.86667943      -0.12891380       0.95844990
H       10.67793631      40.36592997       2.95551035      -0.05750074      -0.06791320       0.01647146       0.50535011      -0.60607612      -0.69549394
H       10.33724682      38.75993064       2.29831622      -0.21365317      -0.05305326       0.19520239       0.44600037      -0.11281784       0.01212087
C       13.52748786      36.99531180       3.82442289       0.67956175      -0.09431478      -0.14262773       2.59477067       0.73659313      -1.52450383
C       12.79687353      36.71799978       5.04639614       0.26030093      -1.73562387      -0.02435548       0.05944666      -1.49334872       2.93018341
C       13.89560756      35.74277095       3.01959239       0.18722689      -0.71574932       0.61063652      -0.86715037       0.00899437      -0.45672148
H       14.45671977      37.60521185       3.99603315       0.06603444       0.06136032       0.22612221      -0.59419394      -0.66052473       0.41709879
H       13.38224851      36.14893104       5.79082074       0.08511953       0.22928006       0.13584664       0.22155891       0.37638500      -0.42244440
H       11.93307859      36.05349788       4.97657894       0.12395693       0.07456073       0.04486587      -0.21183793       0.41968080      -0.66584569
H       12.52797088      37.63922148       5.53064106      -0.13490454       0.24805508       0.14800690      -0.21056893       0.04142685       0.39328015
H       14.49088306      34.97188622       3.50870355       0.17907167      -0.06432138       0.01068074      -0.34206918       0.21561745       0.60606939
H       14.46851373      35.93281711       2.09044768       0.29628523       0.04943974       0.04785851      -0.73962879       0.33430359       0.36800954
H       12.85992277      35.38688735       2.82418174      -0.27611571       0.06182390      -0.02956334       0.93581355      -0.51323932      -0.50665885