1344
Lattice="23.80855848955356 0.0 0.0 0.0 23.80855848955356 0.0 0.0 0.0 23.80855848955356" Properties=species:S:1:pos:R:3:momenta:R:3:forces:R:3 mol_liquid.pdb=T energy=-610265.9375 free_energy=-610265.9375 stress="0.002289324067533016 -0.00048688502283766866 0.0003646479162853211 -0.00048688502283766866 0.0010809940285980701 -0.00033055568928830326 0.0003646479162853211 -0.00033055568928830326 0.0009834145894274116" pbc="T T T"
C       14.22552931     -27.59491599       9.22795377      -0.21909888       0.86510316      -0.87406165      -0.86186337      -0.69921267       0.86297965
C       13.49021447     -28.90403538       9.22180761      -0.34932864       0.27387381       0.52407841      -2.53674459       0.02838609       3.63613963
C       15.16687964     -27.45865271       8.28713889      -0.97294535       0.81246079      -0.54323433       3.26013851       0.50253749      -1.60723948
C       13.99665760     -26.50386801      10.09985833      -0.97625114       1.08885334      -0.49884427      -1.21194541      -0.91952300      -0.66871870
H       12.37896141     -28.71231038       9.39025554      -0.17192696      -0.20351371       0.05733895       1.17441189      -0.19603898      -0.67531884
H       13.64945386     -29.59891402      10.11711515      -0.22755211      -0.09708254      -0.09737484       0.44596002       1.19317532      -1.06223559
H       13.63808392     -29.53369710       8.39710559       0.02606953      -0.11464159      -0.03053899       0.12604593      -0.30490631      -1.27825618
C       15.57347677     -28.53780170       7.30799285       0.50487445       0.67849840      -0.55660130      -0.01394561       0.66461194       0.74064988
C       16.05195352     -26.35108173       8.26781076       0.06957040       0.67803725       0.16627172      -0.21673603       0.29553691       0.13444731
H       14.78756722     -28.68395120       6.60532265      -0.38920828       0.02095023      -0.04514272      -0.60377306      -0.85669637      -0.45872581
H       15.88883152     -29.42055646       7.85735420       0.25309707       0.04976634       0.00299445      -0.19265756      -0.20434010      -0.34565213
H       16.40331262     -28.16307360       6.73231529       0.38411205       0.01370462      -0.22780085       0.35260212      -0.15015706      -0.07523133
C       15.91221715     -25.32287606       9.16485415       0.06219739       0.70388143      -0.02330768      -1.20143485       0.63630331       0.14721093
H       16.80579220     -26.34837217       7.49208408       0.10681338      -0.09613006       0.13649885       0.22359608       0.10388397       0.26228335
C       14.73037422     -25.35984899       9.96656943       1.53083047       0.47713097       0.94055713       1.21030402      -0.00738156       0.73271954
H       16.54546773     -24.40793714       9.25886454      -0.12930065      -0.27009571       0.16553659      -0.40312859      -1.14178205      -0.45500129
C       14.40914859     -24.14382480      10.76620884      -0.23715679       0.26278474       0.08515116       0.45689246      -0.81259716       0.13210283
H       13.65197383     -24.35683055      11.51098214       0.11397131       0.06339810       0.25487284      -0.17666605       0.27536654       0.03349025
H       14.11672080     -23.39913789      10.06023655       0.32121397      -0.03685618      -0.01207949      -0.40508771       0.87511039      -0.05776483
H       15.33342227     -23.86210775      11.24579164      -0.08882085       0.33018950      -0.10310106       0.05997373       0.51661271       0.36730134
H       13.10600637     -26.55521920      10.74811246      -0.06629698      -0.10129494      -0.19449354       0.63760108       0.18565023      -0.16181718
C       19.64400499      34.68271703       4.77644474      -0.77737492       0.34095402       0.12896675       0.93297082       0.29405773       1.36485541
C       19.02184053      35.44650422       5.95665352      -0.68430546       0.37695234       0.33072699       0.42498666       1.87747526      -3.98284936
C       19.37276680      35.02020152       3.44644154       0.20718016      -1.53792209      -0.31405346      -0.18984829       0.94632763       1.17481232
C       20.65680405      33.75542818       5.08846170       0.97536450       0.30800144      -0.07547700       0.12333351      -0.14365058       0.19437550
H       19.53669002      36.42258246       6.07060165       0.08374104       0.14706625       0.11186573       0.08329719      -0.69269288       0.22096170
H       19.05568975      34.87280854       6.79685426       0.09719289       0.16947381      -0.33905700      -0.24195646      -1.25605822       2.44757175
H       18.04737815      35.75362999       5.60137207       0.01802729      -0.21618418       0.17932052      -0.57961923      -0.30656561       0.71651560
C       18.40052407      36.09603739       3.08903064       0.30839912      -1.16816141      -0.12939894      -1.61105084       0.80914611      -0.86623651
C       20.05605387      34.36558572       2.47898211       0.95783722      -0.24055789       0.17951901       1.49397027      -0.60882747      -1.12627959
H       17.41293499      35.63081748       2.93335797       0.04154037      -0.05460001       0.03775035       0.07090708       0.18160194       0.40018791
H       18.51102294      36.63829035       2.12747106       0.11020756       0.02521857      -0.04355922       0.76891500      -0.72261012       0.27365643
H       18.26365122      36.94237478       3.77329988       0.07013494       0.18319217       0.10069018       0.26286542      -0.60168523       0.29169592
C       21.06497387      33.44361575       2.75862123      -0.50260531      -0.06409487      -0.05960864      -0.67522186       0.15675099       0.45441040
H       19.95006154      34.67375956       1.45582611       0.00303820       0.34997831       0.01650978      -0.35301739      -0.10432800      -0.38363010
C       21.40493653      33.13560894       4.07390804       0.41441397      -0.38061277       0.31042346       0.16846853      -0.46466780      -0.50559628
H       21.54814744      32.95292002       1.93900561       0.10692836       0.15772777       0.37559677       0.30929929      -0.12844731      -0.20310564
C       22.58574412      32.17510056       4.31825106       0.09034093      -0.13431723       0.34729776      -0.49576202       1.60208666      -0.41479367
H       22.65889140      31.37124019       3.57880585       0.14875919      -0.04444994       0.28937130      -0.13563707       0.22298606       0.27372572
H       22.44519416      31.81897977       5.30873249       0.17718812      -0.18654499       0.00623487       0.28702158      -0.74645114       0.83060658
H       23.51481845      32.77508434       4.28154492      -0.15274453      -0.01687792      -0.13419632      -0.34923086      -0.55806696      -0.01113080
H       20.87870402      33.54767845       6.16669356      -0.28148813      -0.11080523       0.02846417      -0.18226360       0.24025057      -1.17781591
C       21.61609841      10.06480074       9.49894736       0.41161737       0.45490800      -0.06164390       1.55963051      -0.92643666       0.11952302
C       20.73616668       9.01149001       8.91577250      -0.17756087      -0.00333330      -0.06165012      -0.59447241       0.28899685       0.63366461
C       22.97841854       9.75374930       9.73987917      -0.88799794      -0.76701934      -0.10143709      -0.27755895       0.35870835       0.06942161
C       21.13454324      11.27408048       9.94376940       0.62999936       0.02450109      -0.14180018      -1.38651657      -0.27334663      -1.24483323
H       19.71304147       9.39903623       8.81013740       0.05939198       0.15022817       0.26348843       0.41712764      -0.38165778      -0.03412239
H       20.77388413       8.18496656       9.61418527      -0.05632452      -0.03032298       0.13865388      -0.60361356      -0.30242676       0.20400050
H       21.06949421       8.54723964       8.00538915       0.32987399       0.11975762       0.03702724       0.26904291       0.25384134      -0.58154774
C       23.53831094       8.41757594       9.39789020      -0.24165616       0.05220910       0.61203619      -0.10765232      -1.26578593       0.53519285
C       23.81832685      10.70604447      10.32092017       0.22437626      -0.93554093      -0.92952692       0.76459956      -0.86417955      -0.16357265
H       23.61032114       8.28580011       8.33658231       0.00770106      -0.04674109      -0.13507886       0.41562933       0.09074744      -0.77065134
H       22.85368954       7.58161637       9.65729294      -0.06663422      -0.34282551       0.05223990       0.41630012       0.61917162       0.27543548
H       24.52492538       8.20895597       9.86751313      -0.09455603       0.25036652      -0.15697674      -0.67938077       0.30372953      -0.39686662
C       23.32425912      11.93634597      10.67502385       1.05038315       0.51775765       0.11714051      -0.78908831       1.59789491       0.86295867
H       24.88809444      10.40915413      10.48205318       0.10168434       0.02489527       0.02725570      -1.19560480       0.53432965      -0.06102430
C       21.94384139      12.22920877      10.48774892       0.95381189      -0.64491338       0.91618961       0.48123580       0.07258554       0.17772470
H       23.95635924      12.68889691      11.19862891       0.12246369      -0.28648856      -0.26066356      -0.47148454      -0.65491855      -0.65681225
C       21.30050768      13.53029222      10.85326398       0.13631778      -0.51080924       0.16716402       0.63912463       1.00372839      -0.11302245
H       20.42915053      13.90040119      10.25861939       0.01000874       0.41718995      -0.14450697       0.98494351      -0.90544504       0.29088804
H       22.12474105      14.24118349      10.76064520      -0.15095466      -0.23994740       0.27354848      -0.56165618       0.46602660       0.19508864
H       20.96384291      13.54272611      11.87980363       0.09101248       0.17144982       0.32904758       0.02625130      -0.00454062       0.39783350
H       20.06515488      11.49388912       9.74628372       0.10000447       0.18198706      -0.16900323       0.77864683      -0.06935905       0.32042542
C       11.55423669       1.15666881       7.73992874      -0.47999786       0.66395817       1.28639870      -1.35546184      -3.19275570      -0.51830530
C       12.47387108      -0.11797623       7.65339435       0.32270117       0.12801009       0.37146633      -0.19136113       1.22191525       0.15470371
C       10.11668466       0.96859494       7.53032503      -0.47543829      -1.17968310       0.28602479       3.15021610      -1.79961491      -0.63009232
C       12.00324145       2.33732482       8.19695697       0.56908743       0.49275237      -0.03424260       1.05334353       0.24164899       0.34693936
H       13.57339795       0.11087700       7.45718830       0.04576883       0.10148449       0.03015861      -1.62262285      -0.29529834       0.31717181
H       12.06405109      -0.82002603       6.92414278       0.37376040      -0.06288852       0.18423278       0.44846496       0.21129146      -0.13115069
H       12.36194816      -0.63645484       8.61318289      -0.03196973      -0.13312222      -0.07573734       0.36307669       0.07578351      -0.14231467
C        9.57588019      -0.30635199       6.96125275       0.38303563      -0.02733122      -0.09634478      -1.60683632       0.49532598       0.64623946
C        9.30830881       2.00854197       7.71082393       0.37363685      -0.17920088       1.10410883      -0.12251726       1.64543462       0.91094941
H       10.10773537      -0.59726299       6.12143695      -0.18923123       0.16470855       0.15477392       0.94377291      -0.23034456      -1.99254131
H        8.50776485      -0.23321636       6.69744997      -0.06176084       0.02317926      -0.01967930       0.50554323       0.30524397       0.02077728
H        9.61997985      -1.19216629       7.53719087       0.16450300       0.13597389      -0.40414694       0.28586805      -0.74885857       1.33564353
C        9.87637515       3.26069018       8.01998605       0.23889896      -0.85946513      -0.36386711      -1.76577783       1.78741026       0.54432726
H        8.25379820       1.79101584       7.73427610      -0.16431783      -0.46159475       0.15009393      -0.25509113       0.62769222      -0.43514562
C       11.21311164       3.46821700       8.32392127       0.02716953       0.69060255      -0.42584259      -0.65695977      -1.09968233      -0.95919490
H        9.13159440       4.10205244       8.05494749      -0.01102593       0.17391502      -0.02304853       1.00230384      -0.62127626       0.16781089
C       11.87652194       4.73459692       8.69132202       0.34552600      -0.69454809       1.59170879       0.24341874       0.11195122       0.14920442
H       11.55200640       5.00863700       9.67840955       0.15119378       0.15000936       0.00797982       0.06416018       0.48571554       0.45115215
H       11.58368208       5.48597292       7.99855517      -0.09816119      -0.12517775      -0.05164199      -0.34726697       0.85109955      -0.34318778
H       12.97720122       4.69115286       8.62784904       0.04162393       0.08064420      -0.03418807      -0.69010270      -0.27799153       0.27089208
H       13.03490904       2.40616921       8.48470199      -0.24266559       0.11546995       0.01953493       0.45599943       0.12466877      -0.10142297
C       27.94714743       6.10620480      -2.10633692      -0.11028329      -0.42689792      -0.37413466       1.05110824       2.34397459       2.51065350
C       28.71753252       4.92291327      -2.46325808       0.24274024       0.27621092      -0.76429443      -0.64588773      -1.20255232      -0.94776428
C       28.54390349       7.08359308      -1.22263216       0.22616413       0.42122514       0.21704784      -2.24427104       0.46738315      -0.50421512
C       26.64577956       6.28196901      -2.50946452      -0.10770535       0.92762892       0.78724275       2.15727925       0.04705313       0.63291204
H       28.49555824       4.68102890      -3.50500426       0.16237916      -0.07666412      -0.13963870       0.11506104      -0.23898467       0.00912487
H       28.39309386       4.06970056      -1.86584170      -0.17100080      -0.01237407      -0.26317978       0.31367391      -0.10127451       0.08088006
H       29.76411517       5.08546816      -2.38719329      -0.11501817      -0.04133809      -0.06014232       0.75549960      -0.20413116       0.20749214
C       29.88252120       6.91289915      -0.63455494      -0.61645364      -0.26499792      -0.64763637       0.43854409      -0.81506032       0.54626209
C       27.77598664       8.22950451      -0.87521501      -0.01763294      -1.15302784      -0.09125428       0.00222880      -1.56994486      -1.30111873
H       29.98012136       6.16318653       0.16360197      -0.09929115       0.03916230      -0.06108971      -0.62151569      -0.07039147      -0.12810440
H       30.25510715       7.80148707      -0.16926893       0.04475010      -0.05236216      -0.11495849       0.24547097       0.70381522      -0.17863382
H       30.53663444       6.53085042      -1.38281247       0.12434454      -0.07680867      -0.06549423       0.96033061       0.18800005      -0.51750112
C       26.45585928       8.34044655      -1.29591165       0.32356711       0.98871966       1.38393437       0.63659453      -0.84767222      -1.02466679
H       28.24109702       9.07650988      -0.44483851       0.16632273       0.21851471       0.12169654       0.26440012       0.23017643       0.93892878
C       25.93673913       7.39936015      -2.17090867      -0.41754632      -0.61601692      -0.42559159      -1.02979946      -0.74093741       0.06815480
H       25.81487676       9.11345076      -0.98917157      -0.23396216      -0.39506394       0.06804988      -0.36243975       1.11957228       0.23806855
C       24.57803387       7.43216482      -2.76634037      -0.22063154      -0.84756969      -0.40911545      -0.83540970       1.93658638       0.12773991
H       24.01609476       6.53502574      -2.72306232      -0.10332739       0.07783236       0.25722802      -0.11243275      -1.19558406       0.15547782
H       24.57825876       7.74972157      -3.80920605      -0.04091443      -0.02585749       0.04943599       0.17148350      -0.11158469       0.10096776
H       23.95863253       8.15407659      -2.24795542       0.13655826      -0.06064109       0.02873607      -0.00599375       0.29721862       0.03681973
H       26.29152387       5.43937807      -3.01773278      -0.21055365       0.29570147      -0.08807323      -1.19774127      -0.66077101      -1.13911283
C      -15.35020028      23.73816852      11.69892904       0.56830469       0.36885870       0.26049437      -0.64785713      -1.24013376      -0.29901454
C      -14.85241230      22.88845798      10.57300825      -0.44954722      -0.94014903       0.80632817       0.72645926      -0.96709728       0.22599462
C      -14.79055983      24.92328591      12.10199017       0.23933962       0.18790671       0.35882064      -0.08869947       0.53116357      -0.00059250
C      -16.49340054      23.22609941      12.32733590       0.01682314       0.00368937       0.81680508      -0.41144958      -0.43705100       1.05754137
H      -14.46361650      23.46004826       9.78082740       0.39506847      -0.21455309       0.07548224       0.49078417       0.81510592      -0.99482310
H      -15.59686880      22.23424649      10.13775253      -0.14297780       0.02351012      -0.08177237      -0.52640295       0.15841337       0.09405370
H      -14.05214258      22.18225247      10.85151544       0.06589382      -0.09475260      -0.11261340      -0.06191161       0.40538129       0.27408949
C      -13.54631024      25.52210002      11.42900696       0.55283650      -0.67823225      -0.16878746      -1.17464519      -0.44189644      -0.14070207
C      -15.47205683      25.60941539      13.12825635       0.28952413      -0.29698434       0.00099989       1.24245799       0.02830775      -0.17211694
H      -13.03064228      24.67034887      10.91259813      -0.05373750       0.16066794      -0.16212651      -0.14491591       1.24872518       0.37294430
H      -12.91825806      25.96297007      12.23430031      -0.05839417       0.06518540       0.21493438      -0.22069636      -0.08830336      -0.91843885
H      -13.94078301      26.28586375      10.67626427       0.04445633       0.14970883       0.12159486       1.12436450      -1.00155282       0.94388282
C      -16.56104189      25.12336311      13.78555702       0.84773603      -0.41206630      -0.42919466      -1.47862697      -2.14340758       0.94210106
H      -15.00033786      26.52015196      13.44999537       0.20220130      -0.23549948       0.02176031      -0.18150662       0.42393702       0.16541833
C      -17.10742502      23.80313810      13.43680006       0.33571471      -0.63620050      -0.83091004       0.21417460       2.42130041      -0.95556086
H      -16.98061882      25.66786777      14.65543947      -0.07526101      -0.11992532       0.08747309       0.21019284      -0.33768836      -0.80294764
C      -18.48751497      23.31988718      13.90697982       1.02632536       0.01690014       0.11328148       0.95074528       0.95198083      -0.01507970
H      -19.23366667      23.70830856      13.19162110      -0.10441171      -0.04193467      -0.04261579       0.25615531      -0.42918295       0.28976214
H      -18.73768732      23.73739717      14.89058203      -0.03389638       0.00685855      -0.15947275       0.10348336      -0.20882511      -0.25438234
H      -18.49392036      22.23847323      13.95873728      -0.06614658       0.14698273      -0.05915712      -0.28786659      -0.10246034      -0.08881811
H      -16.87673451      22.27364596      11.94261755      -0.16492318       0.08031229       0.08573518      -0.00099560       0.39373216       0.15942463
C       10.54727944       6.99382109      23.46493809       0.81613627       0.16006035       0.29303310       0.16898943       1.86794209      -0.36026460
C        9.89185939       5.66412613      23.29411116       0.39123450      -0.12845373      -0.11029463       0.38229376      -0.36969432       0.09743375
C       11.95689787       7.20113269      23.40187459       0.13689729       1.05456443       1.63631323      -1.82424355       0.24558192       0.20877364
C        9.72154165       8.12423279      23.66844876       0.26275258      -0.24856846      -0.26430558       0.81048870       0.48453018       0.29663593
H        8.87943075       5.77359559      22.87191674       0.11165831       0.17671513       0.01098131       0.47936648      -0.15576842       0.40508881
H        9.88872804       5.14318532      24.27019287      -0.17334407      -0.00239444       0.02081745      -0.26989040       0.15490934      -0.49518681
H       10.48677373       5.04333804      22.61789849       0.11274075       0.15949011       0.05843080      -0.28972107      -0.00138266       0.01224080
C       12.90226989       6.05042317      23.28746413       0.06252482      -0.69169247      -0.67102972       0.51668859       1.76793432      -0.76091886
C       12.40542374       8.50993691      23.51279889       0.17907225      -0.21626346       0.69600657       0.85160154      -0.91913784       1.22479272
H       13.86498359       6.47774090      22.96262478      -0.07659188       0.17240427       0.09388205      -0.20453855      -0.60213041       0.53872353
H       12.56160312       5.40570165      22.52302686       0.06708554       0.04611072      -0.07592858      -0.22897246      -0.86451232      -0.85207176
H       12.95631560       5.50245205      24.19113108      -0.11780189       0.21202158       0.15036795       0.37382355      -0.51846319       0.93187392
C       11.60746492       9.59337205      23.75600362       0.30875443       0.20432218      -1.04240749      -1.14815688       1.05978572       0.68675464
H       13.43196309       8.63703425      23.80170908      -0.21679270      -0.05185035       0.22715064       0.66217089       0.05632658      -0.74178880
C       10.23796330       9.45231415      23.87250355      -0.48912581      -0.09244493      -0.67622890      -1.47771108      -1.72779417      -0.18771833
H       12.01875573      10.57168485      24.00511320      -0.22039056      -0.14390707      -0.16165502       0.11935814      -0.33663803      -0.25386155
C        9.30577994      10.61332737      24.23148226       1.02298532      -0.29004820      -0.15552449      -0.27205861      -1.98151171       0.05665027
H        8.23835624      10.35928082      24.18252177       0.30549113      -0.38830111       0.06610426       0.45027441      -0.30198717      -0.02005047
H        9.43246733      11.35555329      23.51128143       0.06432026      -0.09812920       0.25646025       0.32746899       1.59617853      -0.92295623
H        9.48375654      10.98044607      25.22607129       0.15285777       0.34223428       0.27427542       0.29980347       0.21846870       0.29760158
H        8.64702890       7.93949787      23.71651965       0.03346953       0.16391063       0.02061506       0.31266159       0.23322904      -0.03158071
C        5.44042174      24.73530335       8.66215606       0.58688218       0.25175436       0.41121791      -0.53003561      -1.43032992      -1.06002533
C        5.20076535      25.12866576      10.05218238       0.10073120       0.04661664       1.04920017      -0.68172830      -0.24247491       1.53471565
C        5.64543482      25.65450130       7.62001116       0.06036087      -0.42421990       0.10234094       0.64059401       0.02154973      -0.81389463
C        5.39269352      23.36132721       8.38930911      -0.55094687       0.36299516      -0.36205609       0.03348240       0.91975015      -0.94209975
H        6.13671028      25.32585816      10.55863109       0.30258968      -0.01054563      -0.09271629       0.22343495       0.12107690       0.25629219
H        4.65433894      24.35529957      10.64422680      -0.31775490       0.20977127      -0.00960342       0.64926767       0.29400399      -0.61213714
H        4.57215867      25.98814697      10.14964117       0.11013519      -0.41956227      -0.21311397      -0.21280462       0.74381149      -0.09234031
C        5.63448529      27.11182338       7.96111907       0.50199642       1.23073908      -0.35192639       0.47388980       0.07189475       0.94488561
C        5.99546522      25.22981897       6.30307795      -0.28366791      -0.52636836       0.48925526      -1.67341101      -2.08143282       1.42991114
H        6.18032270      27.25268324       8.91067047       0.13688510      -0.04359930       0.12008435      -0.22278258       0.04588286      -0.32157403
H        4.64622068      27.54894985       8.12334624       0.06815959       0.08598728      -0.48308885       0.05907001      -0.17654210      -0.24624220
H        6.18774674      27.65889079       7.22330893      -0.02868079      -0.13534372       0.08712249      -0.00712728       0.38728172      -0.41929251
C        5.94107106      23.80031311       6.08447159      -0.88413798      -0.81732186      -0.35894818       0.50028682       2.28504658       0.40278810
H        6.09393974      25.95222216       5.47753650      -0.04707434      -0.13958110       0.07161558       0.26957905      -0.52257347       0.57992691
C        5.62721096      22.90589794       7.10998487      -0.64513611       0.31360420      -0.72594169       1.05473161      -0.67807084      -1.09418154
H        6.26824481      23.44103799       5.12851879       0.17217207       0.05357306      -0.08107976      -0.21038499      -0.25863662      -0.27478704
C        5.61187877      21.40842917       6.77126669      -0.36082711      -0.27597903      -0.34401661      -1.95532358       1.23534775      -0.38921446
H        4.52017395      21.18945523       6.69761760      -0.06384236      -0.13928319       0.05799305       0.65096593      -0.24732909      -0.25050977
H        5.93398101      20.78452907       7.59182507      -0.17835114      -0.03583572      -0.10815931       0.65777230      -0.12850362      -0.15695249
H        6.05117591      21.24047357       5.76834966      -0.01159428      -0.10099516      -0.06457333      -0.04356530      -0.24839732       0.95450634
H        5.10679159      22.63612530       9.12034193      -0.04962167      -0.06555718       0.24412041       0.03966156      -0.10072581       0.65868509
C        0.12296748      21.11011433      16.37929707       0.19643553      -1.17440714      -1.12882108      -0.43817952       0.84328675      -0.79254818
C       -0.85370148      20.32631458      17.20763105       0.25804346       0.29551469       0.69669624      -0.74769777       0.08420346      -1.36308193
C        1.32297940      20.50237563      15.97114458       0.11355610      -0.11548110       0.28941577      -0.30637774       0.58397204       0.85523832
C       -0.21104682      22.45018892      15.96319667      -0.83574996      -1.10021116       0.36304297       2.75082994      -1.23926234       0.26342329
H       -1.12583701      19.36787575      16.74518397       0.39157689      -0.22743305      -0.32080801       0.61254102      -0.09369604       0.44232959
H       -1.81108826      20.82039611      17.17102191      -0.08168119      -0.01456224      -0.02194576      -0.28608766       0.48367500       0.39685655
H       -0.50499085      20.25890744      18.21621270       0.12449569      -0.26297936       0.00904509       0.03782449      -0.38349450       0.58072698
C        1.58663156      19.06174235      16.22506457      -0.65371705      -0.05993436      -0.43657601      -1.40449584      -0.61927456      -1.41536021
C        2.28640037      21.25183464      15.31931097       1.17255080      -0.40326716       0.07391883      -0.17646696      -1.46592641      -0.44735402
H        0.97372082      18.56149387      15.40556317       0.08878522      -0.35172516       0.06453797       1.07757425      -0.02865378       0.96563923
H        1.16856705      18.69791096      17.14181779       0.08691929      -0.01184284      -0.03503649      -0.13425487      -0.08457057       0.56119359
H        2.63160564      18.79142161      16.17353873      -0.02191408       0.18591080      -0.15845304       0.14469972      -0.11724138      -0.22430423
C        2.04507586      22.55200008      15.02164208      -0.16314611       0.18559164       0.24002244       0.87431252       1.17421794       0.05822314
H        3.15564689      20.71114155      14.91375289       0.03093237       0.25955757       0.00126086      -0.16737795       0.54307187       0.49426413
C        0.82302191      23.18219326      15.34021844       0.44503433       0.56724326      -0.60533300       0.26229364       0.60986018      -0.97552085
H        2.94474692      23.06363320      14.61400780      -0.02274027      -0.10204247       0.21789575      -1.40339136       0.18104851       0.04094067
C        0.71829297      24.60874140      14.80104279      -0.09796836      -0.56495750       0.45402204      -1.40069175       1.07020020      -0.08403061
H        0.24564133      24.68938408      13.78857499      -0.11445910       0.21891011      -0.40664016       0.59290504      -0.55525696       0.71174008
H        1.65517179      25.17911141      14.74868803      -0.25035004       0.01476449      -0.16481077      -0.02068651      -0.62723780       0.07572707
H        0.05192620      25.27130889      15.38877022       0.13040908      -0.16221202       0.16887209       0.24605450      -0.55150074       0.08827210
H       -1.15085202      22.87823929      16.24969051      -0.11260461       0.26767615       0.23668764      -0.20457602       0.14584780      -0.06027632