1024
Lattice="22.236367432706206 0.0 0.0 0.0 22.236367432706206 0.0 0.0 0.0 22.236367432706206" Properties=species:S:1:pos:R:3:momenta:R:3:forces:R:3 mol_liquid.pdb=T energy=-372550.3125 free_energy=-372550.3125 stress="0.003932212013751268 -0.0019707875326275826 -0.001092360238544643 -0.0019707875326275826 0.0019065754022449255 0.0014691418036818504 -0.001092360238544643 0.0014691418036818504 0.003675387939438224" pbc="T T T"
C       -9.35809955     -39.23481257       3.11056463      -0.28641882      -0.56278845       0.31490667      -0.65950674       1.05136514      -0.44561893
C      -10.15909594     -37.95541168       3.44905901      -0.23622259      -0.10770637       0.20843276       0.51605874      -0.16384672       1.41009450
N       -8.00092804     -38.93524337       2.70195939      -1.03148835      -0.00182364       1.19891275       0.15118743      -0.51497710      -0.14258337
H       -9.38548465     -39.97960054       3.89810254       0.31124435      -0.10343893      -0.13098929      -0.11107007      -0.06432848       0.42653745
H      -10.00597979     -39.60913903       2.29958319      -0.18853614      -0.03411554      -0.12073206       0.77848494      -0.51810807      -0.17570354
H      -10.12594963     -37.22440348       2.65236595      -0.01171722       0.08461931      -0.01953098       0.02867044      -0.00193627      -0.21804073
H       -9.90710236     -37.44929932       4.39885229      -0.15391264      -0.11435617       0.13303889       0.55231339      -0.23435271      -0.50377363
H      -11.17528793     -38.23353768       3.65284998       0.08098763      -0.02406154       0.04842469      -0.70634317      -0.22955197      -0.37967256
C       -7.01521301     -40.00098313       2.67865853       0.73091739       0.45271686      -0.30880672       0.73762602      -1.15393245      -1.05444622
H       -7.62660290     -38.09146680       3.07286252       0.15126227       0.24022424       0.04529634       0.09909463       0.46809578       0.61235243
C       -7.01638055     -40.69390177       1.28670075       0.65993233      -0.61113491       1.01157478      -0.12211856      -0.39931267       1.07588542
H       -7.12788693     -40.85805892       3.45734719      -0.17611312       0.11724180      -0.09261017       0.01267682       1.63822532      -0.78448516
H       -5.94670452     -39.62413642       2.69864356      -0.09471072      -0.05697405      -0.20947646      -1.43613553       0.08624461       0.74515933
H       -6.78194522     -40.00823904       0.49043001      -0.22684255      -0.21035411      -0.04231860      -0.34948620       0.40360489      -0.21034804
H       -7.94450058     -41.24717928       1.10642951      -0.10874722      -0.10341321      -0.08816771       0.20250922       0.23837695      -0.11933412
H       -6.19259981     -41.38616178       1.30919123      -0.22168783       0.02842716      -0.10949307       0.21944639      -0.67936003      -0.16476300
C       -0.74606657       5.57817589      -5.64239025       0.01090878      -0.52407849      -0.27511225       1.26393342       1.07865596      -1.68390083
C        0.13106921       4.46461077      -6.25469571      -0.87723992      -1.06215139       1.08263913       0.54968417       0.76564050       0.01938588
N       -1.06019350       5.47713179      -4.27283168       0.24530655      -0.29656784      -0.15015154      -1.70825505      -2.99481869       1.63218856
H       -0.32681890       6.61294328      -5.79787051      -0.10333157      -0.33319795       0.03820446       0.17403045      -1.04813361       0.06123734
H       -1.64545020       5.63042587      -6.20049664      -0.17484971      -0.19382965      -0.13675222      -1.10868073      -0.05736579      -0.47728592
H       -0.41177982       3.55709846      -6.43915742      -0.24243033       0.09140841      -0.04174039      -0.44316417      -0.36055139       0.36396497
H        0.94838263       4.26417261      -5.55361361      -0.19239902      -0.26630943      -0.10276890       0.03497082      -0.12788571      -0.46529633
H        0.53369601       4.71589120      -7.25084727      -0.14758359       0.03834469       0.06098489      -0.00819785       0.24733333       0.55060166
C        0.08034405       5.34672603      -3.38219832       0.02241506      -0.57452205       0.40175116      -0.76701218      -2.71384144       0.69497520
H       -1.64661456       4.57111666      -4.12253966       0.14688689       0.12824236       0.05129594       1.12662911       2.28180075      -0.34466314
C       -0.37768468       5.54907190      -1.95234663      -0.01412808      -0.16302721      -0.78311227       0.04363404       0.96068609       0.77520901
H        0.82626123       5.99436209      -3.69590453      -0.06853528      -0.27478115      -0.38261664       1.32861674       1.61778927      -0.38073224
H        0.59513287       4.29972853      -3.40828597      -0.20743043      -0.09735534       0.03070430      -0.79279053       1.43302023      -0.11629098
H       -0.87201752       4.65563952      -1.57337105      -0.03259568       0.02377394      -0.15053803      -0.25887328       0.08815052      -0.12550966
H       -1.04143893       6.44933287      -1.80215002       0.27788394      -0.06981449       0.06166605       0.65049148      -1.06058049      -0.36304092
H        0.48810880       5.68859878      -1.29905710      -0.14531790       0.20363246       0.09379637       0.00370555       0.00768001      -0.03965420
C       11.74400113      -5.69092554      18.85282724       0.24743511       0.02695032       0.63855949      -0.56500167      -0.10296300       2.06624484
C       10.99772460      -7.04980409      18.89108990       0.34056786      -0.44418799      -0.36091087       0.23821661       1.02505422       1.19153261
N       11.04412864      -4.49052764      18.28443810       0.62824368      -0.94771501      -0.16348911      -0.65398920      -1.58089709       0.25923520
H       11.97824631      -5.55267747      19.96081359      -0.35623371      -0.27532312       0.09366651      -0.09020040       0.49884921      -1.07218063
H       12.71900623      -5.87783554      18.40983522      -0.08528657       0.01098469      -0.00250830      -0.13825157       0.43346176      -0.49856755
H       10.04489153      -7.06788404      19.43517007      -0.42559045      -0.15500498       0.41908412       0.18540588       0.47488880      -0.15269214
H       11.63936737      -7.75557058      19.41367517       0.26750995       0.04958834      -0.08256857       0.14779228      -0.00913261      -0.02901309
H       10.83788700      -7.42032531      17.93621468       0.03897394       0.26421628       0.01234583      -0.45166841      -0.68257421      -1.72544575
C       11.82097037      -3.27205022      18.37852804      -0.39368943      -0.65062070      -0.54522740       0.26316360      -0.32851827       0.93931794
H       10.18876476      -4.34728390      18.83262508      -0.07953088       0.02821373      -0.18965850       0.52728975      -0.33905223      -0.27642167
C       12.54514586      -2.87793794      17.13551240      -0.24712583       0.74039721       0.14250087       1.59162760      -2.42031336       0.78670621
H       12.48879047      -3.40670433      19.25206301      -0.10649881      -0.18983256       0.01633695       0.07300175       0.62287253      -0.35288534
H       11.16303161      -2.45476580      18.56766750      -0.18261655       0.06827320      -0.06056967      -0.66311812       0.46852815       0.61311054
H       13.14669328      -2.04413801      17.31511378      -0.02763264      -0.17089798       0.00822760       0.67152452       1.66920829       0.18723804
H       11.89659442      -2.74113743      16.33344854      -0.20025195       0.09212902       0.15587478      -1.02556884       0.24294491      -1.27991545
H       13.27544790      -3.66605180      16.90404126      -0.51190250      -0.12239452       0.06177091      -0.28815377       0.03646179      -0.37276828
C       30.34021185      37.04427100     -14.22900042      -0.01123043       0.25076202       0.81865569      -0.45617026       0.16445652       0.14736861
C       30.80872994      36.12528512     -15.36532974       0.01290093      -0.05516078      -0.92685151       1.43216133       1.79769397      -0.38013774
N       29.32573211      38.00917481     -14.70340522      -0.38795128       0.46946340       0.49568942       0.39041659      -0.61020088      -1.78545845
H       29.77427364      36.44142347     -13.52842845      -0.16100748      -0.20003589      -0.02208830       0.35559568      -0.08815853       0.65643835
H       31.25539923      37.50643049     -13.75638895      -0.00731954       0.04202855      -0.19592849      -0.90947437      -0.30938315      -0.13025618
H       30.00344284      35.63719775     -15.86900238       0.13373931      -0.04023858      -0.33433568      -0.52742624      -0.19542652      -0.31210905
H       31.58397210      35.40272975     -15.10203845      -0.09447958      -0.26984056       0.20532677      -0.39448577       0.04942434       0.47407448
H       31.36096281      36.81138168     -16.05789264      -0.26286689      -0.11449543      -0.06458046      -0.61973119      -0.68667120       0.01886472
C       28.62336206      38.87393100     -13.79645514      -0.89643863      -0.24283389      -1.06300128       3.59958744       1.18345737       1.25146079
H       29.69200067      38.55546882     -15.49159701      -0.07007762      -0.11075266      -0.14021835      -0.18608931      -0.39517340       0.56113452
C       29.64216466      39.97629414     -13.18503699      -0.02102831      -0.21728738       0.53915264      -2.82649207      -0.82590216      -1.20452332
H       28.33001967      38.34354036     -12.91390337       0.00548445      -0.07571832       0.23292001      -0.72975165      -0.61532843       0.17413358
H       27.81265670      39.38634973     -14.25913244       0.01080418      -0.13679770       0.25671730      -0.64235246       0.05121680      -0.45257071
H       30.18457585      39.54151745     -12.40001810      -0.35856607       0.17586968       0.17684322       0.97700334      -0.44655651       0.83240390
H       28.96774626      40.70595904     -12.78258867       0.16842943      -0.10925840       0.03451061       0.08739319       0.75747001       0.37968558
H       30.25642197      40.40901571     -13.94820062       0.06606529      -0.02137444       0.12281598       0.38330758       0.19727652      -0.32806394
C      -11.87580979       4.96308320      10.41215450       0.43234093       0.03601969       0.89683925      -0.74179065       0.79049993      -1.66960502
C      -10.92036050       5.00921480       9.18399868       0.30251683      -0.60082363       0.02205556       0.01215848       1.77472878       0.19368926
N      -11.18272855       4.66924885      11.62998684      -0.25305502      -0.63847317       0.20373507      -0.77389878      -0.45357215       1.41386795
H      -12.45775439       5.90928739      10.47702682       0.00845296       0.23873457       0.10573403       0.50195336      -0.09505141      -0.10673425
H      -12.70350603       4.24108026      10.17859376       0.25495421      -0.12812877       0.22763112       0.95701802       0.11194570       0.50840354
H      -11.53898334       5.16244113       8.28448524       0.14235064       0.08217797       0.10449687       0.26734167      -0.79877549       0.20427456
H      -10.28709668       4.10644269       9.19109332       0.05346617      -0.26124264      -0.05304267      -0.27259222       0.47004730      -0.43927431
H      -10.28091639       5.97273518       9.12529641       0.11515992      -0.05848139      -0.06024624      -0.72936916      -1.70747888       0.65488136
C      -10.01120595       5.43898775      11.94776027      -0.41359210      -0.05610760       0.45127821      -0.56319654       2.37613153      -0.35762757
H      -11.81178445       4.87138377      12.41889213       0.26148328       0.05447516      -0.31859722       0.09653482      -0.56894904      -0.67262840
C       -9.68811096       5.31207373      13.39315161       1.16855863       0.50663994      -0.05744313       0.52240431       0.24262771       0.87357152
H      -10.13586998       6.57620489      11.73087366      -0.26687756       0.02559185      -0.18100627       0.10113456      -1.58033454       0.04668846
H       -9.16768379       5.10978854      11.41258763       0.10240778       0.15537058       0.12842839       0.86803603      -0.31677371      -1.02872014
H       -8.93594377       6.06065193      13.68736810       0.28735902      -0.15170691       0.21124425      -0.49479377      -0.15526766       0.06494546
H       -9.28862580       4.35453041      13.66877280       0.07794401      -0.15328831       0.21652934       0.28165919      -0.62445915      -0.14832458
H      -10.59509690       5.39259128      13.97080908      -0.19142256      -0.02620933       0.10668685      -0.22244541       0.52311194       0.50556684
C       -4.40333957       3.89719322      12.91710751       0.31821966       0.45228950       0.95597306      -2.47913313       0.09643672       0.72788441
C       -4.09153130       3.29785538      11.62667857      -0.24264944       0.17880015      -0.46444981       0.63250184       0.36579484      -3.52370000
N       -5.10443188       2.91187553      13.69285088      -0.47649236      -1.53342904      -0.01965927      -0.42351818      -1.97133493       1.72244680
H       -3.52639195       4.30820281      13.34678143      -0.09363868       0.16805033      -0.06756361       1.04471660       0.57940871       0.70115268
H       -5.15917332       4.68467869      12.81988579       0.07615380      -0.34643947      -0.03971055       0.39557847       0.40272284      -0.22908637
H       -3.31572491       2.53147303      11.71281630       0.02785995       0.16699135      -0.31099511       0.01958205       0.29776987      -0.09150338
H       -3.76950891       4.11242768      10.88270507      -0.00645479      -0.31938062      -0.12103881      -0.03990488      -1.27142406       1.07952404
H       -4.92805440       2.79821140      11.11210793       0.08323803       0.12145838      -0.02546307       0.00292546       0.27831095       0.61538303
C       -5.71309513       3.32334981      15.00595080      -0.43811966       0.35251223      -0.85663496       0.99514174       0.46738067      -1.93202281
H       -4.51960086       2.05270836      13.84328407       0.20113588      -0.36620968      -0.09674509      -0.75801814       1.11216474      -0.00352600
C       -4.68928389       3.92276337      15.89697076       0.32566186       0.91510796      -0.38433892       1.45582199      -1.92100418       1.12550843
H       -6.12614561       2.44460018      15.48939599      -0.04852092      -0.14314922       0.00739536      -0.33939943       0.01099218      -0.24446963
H       -6.43961550       4.12168385      14.84359741      -0.03812902       0.16574834       0.10257185      -0.56895351      -0.51496178      -0.35719377
H       -3.86808245       3.13737846      15.93625117      -0.29316186       0.08349571       0.00429889      -0.76212651       1.02036166       0.60927296
H       -5.16178639       4.09503219      16.86970381       0.00599522      -0.23979933       0.10293412       0.59473789       0.09986450       0.02836794
H       -4.23178146       4.80908209      15.51420015      -0.21242320      -0.19244280      -0.10548102       0.09471314       0.61353499      -0.20299441
C       -5.86799012      12.72630319      24.38256686       0.65644830       0.54621431       0.34711399       1.06908846       0.97004128      -1.56667018
C       -5.23986504      11.88360134      23.26494029       0.03096234       0.02167152       0.42411859       2.14050555      -0.26646444       1.45645952
N       -5.65301608      12.31173988      25.73475527      -0.36399325       0.07250763       0.70897520       0.42392251      -1.22399664      -1.07492387
H       -5.62339753      13.79105233      24.24108415       0.19149432      -0.04143904      -0.02482234       0.43622911       0.02806243       0.06536768
H       -6.87723771      12.71795225      24.09964256      -0.00623988      -0.00028269       0.04259395      -1.90453339      -0.15984008       0.38513559
H       -5.77138940      10.94979033      23.25241594      -0.19581516       0.10856616      -0.00665597       0.06837182      -0.70637989       0.02316829
H       -4.11001793      11.68732898      23.49670632      -0.22455817      -0.05466520       0.06686831      -2.00438547       0.30242884      -0.73288846
H       -5.38498106      12.31622635      22.27984531      -0.11189325       0.04843932      -0.01412688       0.25030759       0.30036968       0.11855673
C       -6.27219816      13.15584256      26.64768629      -1.34639274       0.16174663      -0.16939230      -2.51467180       0.70553851       2.01585698
H       -4.70964286      12.46059081      26.00256109       0.06786009       0.07565891      -0.01179230       1.63169909      -0.41948888      -0.49868241
C       -6.07758985      12.57067403      28.06971079       0.19611578       0.53422376      -0.45430875       0.90658057      -0.54381686      -1.60039449
H       -7.34690616      13.18979583      26.41293763      -0.29235160      -0.28655694      -0.38672521       0.02754609      -0.03942795       0.17938969
H       -5.98077598      14.19774851      26.57109423       0.04870711       0.01929833       0.12327683       0.57625902       0.37987256       0.02981151
H       -6.65636069      11.65291812      28.05532500      -0.05700248      -0.21262912       0.07100722      -0.56144768       0.13271654       0.63864869
H       -6.30134403      13.27104558      28.87532943      -0.13287052       0.05432447      -0.03685228       0.03021616      -0.40099031      -0.12263654
H       -5.04972893      12.12534316      28.08126966       0.00245728       0.02212412       0.11615095      -0.57033056       1.10956514       0.44785929
C      -21.15438761      31.39080932      19.95242215      -0.09964340      -0.07017751      -0.05786344       0.39948785      -0.83000660       0.17329729
C      -21.18509948      31.73917917      18.44794788       0.29730152       0.43232617      -0.22069883      -0.46181360      -1.41397071       1.13726628
N      -21.19849606      32.64307001      20.66642957      -0.29032975       0.45411225       0.06504186       0.11936410       1.51844954      -0.96651089
H      -21.97244949      30.72161096      20.24531823       0.25714197      -0.06150733      -0.04988675       0.04146861       0.35046920      -0.08590782
H      -20.21928229      30.85286612      20.22935231      -0.01797123      -0.03987959       0.05904594      -0.30052158       0.00772239      -0.32189494
H      -20.77673114      30.98876295      17.78036361      -0.05837110       0.06351513      -0.03540225      -0.00058049      -0.29693735       0.10296676
H      -20.56466932      32.57982964      18.42807401       0.09489271       0.23488792       0.04330188       0.82001978       1.44264579      -0.79619396
H      -22.19044633      31.97912413      18.13883529      -0.02200766       0.04390894       0.13110822      -0.12343994       0.17692058      -0.06371869
C      -21.26445705      32.71608710      22.09035982       0.72616140       0.47410166      -0.91755281      -0.26266813      -1.28865719       1.46414232
H      -20.48216578      33.26418223      20.27371974      -0.01514216       0.00065587      -0.05701508      -0.39736506      -0.29644245       0.43971089
C      -22.71204999      32.52195647      22.60219353       0.89118041      -0.08775942       0.30507914       0.57769394       0.25511160       1.24394441
H      -20.91700284      33.68614340      22.45618025      -0.01989072       0.02615695       0.12200034       0.09593654      -0.13657695      -0.36748204
H      -20.62791172      31.92111942      22.60419408       0.10242230       0.17541534       0.13097403      -0.41830826       0.82588446      -0.51000017
H      -23.38752301      33.20083919      22.12928318       0.21336834       0.18375347       0.22438822      -0.37680861       0.31295201      -0.72412705
H      -22.82706725      32.79455647      23.68465665       0.46318246       0.11676401      -0.16853827       0.46345592      -0.58759737      -0.79122746
H      -23.04166814      31.49963930      22.45015721       0.13955482      -0.12672799       0.30532967      -0.14816356      -0.05713213       0.00672480
C       26.08783513      34.03782371     -12.94702767       0.66735689      -0.35679460       0.76574245      -1.00690329       1.74097276       0.00606328
C       26.38601697      35.50660711     -12.48172329      -0.09881351      -0.12087430      -0.69653901       0.88649583       0.58644170       0.07761569
N       25.66711398      33.16436251     -11.86783031      -0.96223262      -0.30440888      -0.57143387      -1.52067828       0.05166613      -1.24066985
H       25.36036232      34.03027642     -13.80845850       0.14892514       0.16084655       0.16311608       0.62047929      -0.12774159       0.99708295
H       27.03801111      33.69842516     -13.29420227       0.03180514       0.02815792       0.10890393       0.50159031      -0.53245002      -0.53073770
H       27.38828445      35.48003055     -11.98337815      -0.09307100      -0.00006619       0.19509283      -0.98871881       0.05578945       0.00365505
H       25.66594547      36.06499419     -11.83171555      -0.17482821      -0.12344970       0.30468666       0.35229415      -1.02151811      -0.41820514
H       26.58593345      36.19734211     -13.31234749       0.10604786       0.21235068      -0.00451147      -0.26084924      -0.38516632      -0.17671102
C       24.30691066      33.46347084     -11.35581656       0.39970588       0.88341736       0.57973844      -0.68355298      -0.80755210      -0.41939417
H       26.40986375      33.16452581     -11.20635707      -0.23095468       0.15030183      -0.18127527       0.12533224      -0.02340396       1.16373336
C       23.63013057      32.20888357     -10.71933929       0.41635255      -0.04438274       0.22899832       2.09949875       0.60597908       1.06718719
H       23.61920215      33.76087256     -12.18721724       0.01274672       0.07975191       0.10482802       1.05464005      -0.11072275       0.29724580
H       24.27496436      34.30893428     -10.66195289       0.09594911       0.01357623      -0.07170946       0.15628089      -0.18826933       0.10019885
H       23.33368646      31.43840668     -11.39574533       0.14197705      -0.17892310      -0.06874643       0.03451532      -0.27855712      -0.80455083
H       22.75475800      32.48262647     -10.15926419       0.38925180       0.17932823      -0.10406129      -0.31404829       0.17652735       0.35381693
H       24.39065752      31.75587516     -10.02355705       0.12515818      -0.08722964      -0.20693353      -0.96655530       0.29182017      -0.47704679
C       16.68330282      29.22370813      -4.30123857      -0.09745168       0.15754832       0.01580576      -0.29741809       0.03932853      -0.38933098
C       16.08151555      29.16831109      -5.69960054      -0.76614661       0.20867660       0.17961254       0.51261055      -1.24983788      -0.49565041
N       17.92890132      29.95421298      -4.29105913       0.25787221       0.09420384       0.08804472      -0.79010499       0.22444305       1.31904423
H       15.98480297      29.72173385      -3.64046684       0.12922355      -0.16367219      -0.09983174      -0.18639958       0.31018123       0.19261053
H       16.68798861      28.17830451      -3.93142856      -0.09145441      -0.08734320      -0.06072505       0.55075091       0.19423421       0.02898343
H       16.70850661      28.51734208      -6.39747575      -0.12123196       0.23285544      -0.04484016      -1.00159109       1.09921420       0.93435806
H       15.86994494      30.11420862      -6.16473497       0.41975940       0.10219237      -0.17799893       0.38709745       0.60176033      -0.02390028
H       15.10567501      28.72084781      -5.57594620      -0.13791735      -0.00317762      -0.21550700      -0.20349202      -0.53183049      -0.27387026
C       18.57529421      30.07842680      -2.94398297      -1.02528032      -0.59875479       0.43675080      -2.25940108      -1.39051759      -1.34182739
H       18.50929011      29.59777731      -5.00823214       0.12818122       0.09420444      -0.08339338       1.07571185      -0.42369246      -0.36481971
C       19.78875371      30.87558209      -3.09820088       0.32411309       0.59613252       0.36847791       2.00929213      -0.24609169       0.58386046
H       18.78243510      29.05835741      -2.54784090      -0.22272596      -0.18567117      -0.33856632      -0.11104353       0.64372551       0.12377022
H       17.79098007      30.56837148      -2.35047153      -0.19866340      -0.04053268      -0.09121010       0.37187111      -0.18960176       0.16150874
H       20.59012653      30.17067308      -3.40230467      -0.24807709       0.08369007       0.10016127      -0.23505533       0.72442746      -0.14242800
H       20.10833759      31.32788359      -2.15491689      -0.01060608       0.14716164       0.27467037      -0.01348488       0.06341666      -0.19554120
H       19.63622041      31.63877326      -3.83976164      -0.10407468      -0.09125417      -0.02832161       0.05425603       0.22679967      -0.18994337
C       17.09324902      18.29095522      11.16003992       0.44338142       0.03473418       0.00039833       0.52054602       1.51854563       0.65496027
C       16.45198472      17.65716061      12.38284344      -0.83221497      -0.08846204      -0.17064917      -0.05139018      -1.44657016      -0.28619009
N       17.08038457      19.76735729      11.25905779       0.32140835       0.01199224      -0.33040071      -0.40665695      -1.16658831       0.51819837
H       18.11618208      18.00359539      10.92664685      -0.10120717      -0.15193996       0.01320399       0.00612240      -0.11904812       0.91055501
H       16.62701111      17.91471167      10.28129161      -0.08635646      -0.22667766       0.00756856      -1.11685407      -0.05562498      -0.94776464
H       16.48794491      16.55151369      12.15045551       0.02388845       0.20275654      -0.04411345      -0.67813754       0.99287271       0.54405010
H       15.41787060      18.03690952      12.57681650      -0.06361861       0.15526720      -0.20398926       0.81727695      -0.62254864      -0.47703707
H       16.98771647      17.77407622      13.32080263      -0.07807009      -0.35530401       0.19419371       0.35150850       0.32906109      -0.14366466
C       15.83909245      20.36551659      10.86906213      -0.87014045       0.13952133      -0.14123339      -2.03049135      -1.15178657       0.74235523
H       17.85328056      20.16341447      10.80654278      -0.05498418      -0.11027207      -0.03843270       1.09421396       0.59617054      -0.80336744
C       15.69548691      21.80889490      11.29362856      -0.00683074       0.34032311      -0.08955074      -2.66100025       0.05115065       1.85654616
H       15.06734445      19.70944718      11.44984005      -0.16638634      -0.13706770      -0.00257551       0.94389296       1.45141935      -1.26653326
H       15.59067347      20.27946249       9.76719537      -0.09210420       0.09982943       0.21966007       0.28646523      -0.05534987       0.87548018
H       14.77028934      22.27282818      10.89334905      -0.21154571       0.06086914       0.12257958       0.04688741      -0.72147620       0.30688208
H       16.37488012      22.44746791      10.87733804       0.31592450       0.02283526       0.20255949       2.49437380       1.34776878      -1.02514863
H       15.67054507      22.03494712      12.41005623       0.06992886       0.05900009      -0.03431802       0.21483488      -0.73905611      -1.37849927
C      -18.53121172      -9.74271879     -18.20746391       0.72401871      -0.52890745      -0.77078698      -0.25300437       2.07413864       0.64879131
C      -20.02772543     -10.00651309     -18.32664934      -0.99700581       1.17036381      -0.27495772      -0.35421106      -0.90016055       0.41008437
N      -17.64824563     -10.42694220     -19.09965666      -0.57013429      -0.32290043      -0.32330314       1.83108354      -0.72232711      -1.56710434
H      -18.52653722      -8.63447782     -18.32504028       0.25577930       0.00882919      -0.04249869       0.73517865      -0.32774860       0.02203605
H      -18.14147303      -9.91657041     -17.20582548      -0.09541261       0.13455706       0.10884340      -0.41917753      -0.09431023       0.18115427
H      -20.67262562      -9.44776546     -17.62847583       0.01980095      -0.11215396      -0.13017701       0.71155375       0.24854107      -0.09887987
H      -20.22711033     -11.03937817     -18.06069226      -0.11078447       0.00629542      -0.03000951      -0.19269921      -0.34642038      -0.47229373
H      -20.39727346      -9.76140051     -19.32085503       0.01852874      -0.03946476       0.15945598       0.07783505      -0.29993793      -0.08366821
C      -17.43123002      -9.76988700     -20.43714820       0.05723474      -0.45417229      -0.47122423      -1.55946267      -0.74828988       0.45153373
H      -16.69927048     -10.60939622     -18.70132587       0.00412522       0.20556287       0.11436031      -1.55022240       0.39670023      -0.16699289
C      -16.87668936      -8.37936090     -20.31113269       0.18001302      -0.76030052       0.17567537       0.86853945       0.69454110      -1.70783424
H      -18.45528434      -9.75202109     -20.90909192      -0.07421835       0.13837448      -0.17741635       1.17758274      -0.03618492       0.12164436
H      -16.74148399     -10.34626003     -21.10367557      -0.01931342      -0.10231341       0.07760618      -0.75504673       0.09855653       0.87229866