896
Lattice="22.909282093783606 0.0 0.0 0.0 22.909282093783606 0.0 0.0 0.0 22.909282093783606" Properties=species:S:1:pos:R:3:momenta:R:3:forces:R:3 mol_liquid.pdb=T energy=-1877175.375 free_energy=-1877175.375 stress="0.004725744016468525 0.0001773889671312645 0.0009256727644242346 0.0001773889671312645 0.0028904112987220287 -0.001136329025030136 0.0009256727644242346 -0.001136329025030136 -0.00020595485693775117" pbc="T T T"
C        1.90681250       6.52933807       7.43275963       0.65847360       0.04484979       0.00779314      -1.68760836       1.72459304      -0.18771146
C        0.45825948       6.32778319       6.88403716       0.07097698       0.29028720      -0.92805822       1.05340159       0.83664560       0.09006238
C        2.90599098       5.95251030       6.51341097      -0.66511526      -0.46560897      -0.25685256       0.35397494       0.88761353      -0.98940074
H        2.01889602       7.63692256       7.56211437       0.20954212       0.05378095       0.11870020       0.13097399      -0.88484544      -0.03204584
H        2.00949044       6.06623790       8.41572510       0.25969752      -0.20741823       0.01362171       0.06587455      -0.00635135      -0.07529210
C       -0.57991589       7.15557802       7.64871350       0.26846540       0.35187337       0.03869298      -0.93024224      -2.28247452      -1.30644548
H        0.19650879       5.27716659       6.73598633      -0.01216920      -0.11853313      -0.04920354      -0.13548112       0.06705083       0.80150878
H        0.43593699       6.67371918       5.84892497      -0.20878586       0.19143084      -0.14955713       0.08590461       0.42200011       0.07009313
Cl      -0.83785441       6.56733576       9.29177048      -0.10028522       0.46295822       0.48354047       0.04065483      -0.17880985       0.84610724
H       -1.51084828       6.88934252       7.12267384      -0.00335354      -0.01221964       0.11774554       0.07544328       0.81729829       0.34426674
H       -0.42645323       8.20617451       7.72554689      -0.24062250       0.10073737       0.02102690       0.36589751       0.58006555      -0.32851985
Cl       2.87173926       6.52065398       4.75902993       0.71283514       1.01963018      -0.42229977      -0.09167290       0.11775146       0.71284175
H        2.68401964       4.94204025       6.46085819      -0.24692834       0.17248144      -0.18367734      -0.02416073      -2.05504608      -0.36834008
H        3.92345907       6.08771200       6.78375731       0.19353590       0.22209185      -0.23799532       0.69041222       0.14073832       0.41686788
C        4.61158837      26.37929708      14.45767074      -0.67469231      -0.83594810       0.65022312      -1.30183709       1.98361444       1.18981040
C        3.59415391      27.01654715      13.53891158       0.23697155       0.11660144      -0.17103268      -1.58905041      -0.03583434      -0.05066404
C        3.89075745      26.26292728      15.80903196      -0.45847971       0.07653761       0.70212970       0.46910128      -0.11054300      -0.80583739
H        4.97110382      25.48869077      14.08138400       0.16015653      -0.08177436       0.08962568       0.44770461      -2.12533617      -0.62347436
H        5.50800766      26.99236973      14.58627951      -0.15707287      -0.18656530       0.07096480      -0.22126058       0.20135593       0.15795591
C        4.14629032      27.24899793      12.17070548       0.12302813      -0.53545543      -0.32398123      -0.01236451       1.62160540      -0.22326522
H        3.25005166      27.98975720      13.92500920      -0.23549290      -0.22874947       0.12562687       0.16000813      -0.35352758       0.09720192
H        2.65342970      26.36230058      13.54607875       0.06566345      -0.16895092       0.13041642       1.37737679       0.84928715      -0.40257925
Cl       2.82073711      27.62400587      10.97215706       1.20762282       0.10073335      -0.85800264       0.31297189       0.46770775       0.24663779
H        4.49548400      26.34581911      11.76789878      -0.13363122      -0.07856716      -0.11221793       1.10223401      -0.97841996      -0.42636931
H        4.92515807      28.09121855      12.18629026       0.00875793       0.00767927      -0.07012433      -1.19468415      -1.35849845      -0.38267982
Cl       2.58280094      24.98158415      15.80735278      -0.72236973      -0.10742235       0.10205820       0.24418695       0.62661350      -0.00550205
H        3.47853409      27.26321241      16.00848382      -0.16300032      -0.19519694      -0.22322498      -0.16662471      -0.74192780       0.42125732
H        4.55747388      25.91096273      16.55516965      -0.10336202       0.24551816      -0.07480945       0.44372597       0.06429889       0.81834865
C      -16.31318813       3.65187248      -1.97061950      -0.06110643       0.73554889      -0.36663290      -1.68871403       0.43384099       0.72074848
C      -15.78258883       3.57341371      -3.36818166      -0.51208537      -0.39451836      -1.23042666      -2.00584245      -0.22971222      -1.14434481
C      -17.82838958       4.02575711      -1.97089354       0.48536631      -0.35477801       0.04196024       0.57227731      -0.11706097      -0.04400125
H      -16.28001654       2.69811526      -1.48888124      -0.40566830       0.08049183      -0.16744569       0.39730865      -0.79091585       0.15826358
H      -15.79873659       4.33439145      -1.29447569      -0.01671939      -0.18356933      -0.10545448       0.00334611       0.29417974      -0.15607150
C      -16.18788695       4.77935192      -4.22724476       0.36944297      -0.24623748       0.79149734      -0.31704083      -1.04616249      -1.19544363
H      -16.51181871       2.83901916      -3.82179999      -0.01472271       0.05588351       0.03712062       1.77874064      -0.19163065       0.25772947
H      -14.71898866       3.31130212      -3.39855746       0.04829104      -0.10788293      -0.01198791      -0.53858453       0.09700359      -0.35751081
Cl     -15.62483351       4.41839770      -5.95548527       0.02877236      -0.16418796      -0.94643534      -0.02214002       0.36707246       0.64497709
H      -15.78684084       5.70758254      -3.94790303      -0.18910083       0.10260652       0.07194600       0.83693278       1.17105949       0.26809123
H      -17.27478917       4.93007538      -4.37963193      -0.03142005      -0.10159060       0.00741404       0.72835243      -0.45535311       0.43905419
Cl     -18.82635139       2.90270976      -3.05633180      -1.16636936       0.10227224      -1.30992372       0.46860260       0.64615142       0.49702549
H      -17.94210685       5.03334535      -2.36003826       0.11476407      -0.03706278      -0.18240692      -0.35213166      -0.10887112       0.02028616
H      -18.29027970       3.94805517      -0.98668669       0.19980591       0.16071171       0.09076707       0.15874366      -0.01377864      -0.19995691
C       24.79922490       6.05483660      20.13919613       1.34363617       0.88066643       0.13938423       0.37904108       0.83901179       1.74338400
C       23.65290804       6.28100324      21.19197474       0.68688324      -0.26245178      -0.22950035       1.91623187      -0.35733742       0.18991271
C       25.41918439       7.41328448      19.66256833       0.45842930       0.62882551       0.47056707      -2.10858798      -0.03002790      -0.94206214
H       25.57276335       5.57173874      20.72633789       0.05988608       0.00347567      -0.02247655       0.23425975      -0.27757442      -0.16597715
H       24.53268009       5.36973628      19.35626195      -0.21223950       0.13586944       0.10019484      -0.11565641       0.03029722      -0.57259810
C       23.17424419       5.11446502      22.06458918       0.21143618      -0.01023005       0.07310790       0.57072258       0.42305955       0.28524110
H       22.83181794       6.76916475      20.75311289       0.14022341       0.11896498      -0.02221102      -1.26723075       0.45553201      -0.47924727
H       24.10410253       6.99143833      21.88368985       0.01393714       0.05912299       0.01384586      -0.30628845       0.20109349       0.15078810
Cl      24.48508922       4.64294982      23.28770665      -1.30779521       1.06226569       1.28855013      -0.43780437       0.21714377      -0.64466476
H       22.90335383       4.19914327      21.56191728       0.03263609       0.08767467       0.00554615       0.09555107      -0.04615503      -0.31898797
H       22.34554403       5.44674268      22.69244935       0.20282949       0.02171720      -0.03049278       0.14011009      -0.06127601      -0.19334050
Cl      26.93141489       7.28126767      18.78186275       0.55284862      -0.28263412      -0.47511737       0.58530456      -0.62227803      -0.93007588
H       25.74076612       8.10960829      20.39348857       0.25630010      -0.20595365       0.04958019      -0.44349769       0.09382369       1.52406096
H       24.68997284       8.01202199      19.04662572       0.03673476      -0.02099377      -0.31568534       0.78816950      -0.84877759       0.34557799
C       19.35338748       6.26136104      13.71355517      -0.74559276      -0.50735480       0.43915546      -1.84724760       2.26268911       1.02439475
C       19.83335761       6.17435968      12.29788915      -0.70496343       0.07838916       0.41753063      -0.35992444       0.54852319      -0.48496708
C       17.84982258       5.95543834      13.87951588       0.78198808      -0.85011241      -0.04563505      -1.07642949      -0.79672366       1.70750952
H       19.94247509       5.71230360      14.43204892       0.08065838       0.43745486      -0.18910265      -0.05881265      -0.38799286      -0.00201452
H       19.34370179       7.34972891      14.05348526      -0.01999957      -0.04695884       0.27162767       0.74456441      -1.24868000      -0.41143107
C       19.45781236       4.93856681      11.51917017      -0.44270947       0.69900323       0.13989883      -1.70801473       0.79456055      -1.18619800
H       20.86519765       6.12744324      12.18471465      -0.04037648       0.05428607       0.04661258       2.18817973       0.39549044       0.77890235
H       19.59726681       7.15233479      11.82444490       0.15242471       0.02901757       0.08422546      -0.43259791      -1.02761531      -0.36689755
Cl      20.03133004       3.42453622      12.28068176       0.07515665       1.47934739       0.39809635      -0.33581579       0.18018879       0.02270112
H       19.91968634       4.98193224      10.53455886       0.08471442      -0.00698988      -0.13845290       0.06107396      -0.06841585       0.13300961
H       18.36129037       4.95001551      11.32908106      -0.06490423      -0.06071017       0.10935678       0.71316659      -0.68754894       0.44870669
Cl      16.70903109       7.10186636      13.00988184      -0.31012727       0.76057331       0.09776208       0.71759069      -0.09536132      -0.16477932
H       17.43727405       6.07446258      14.93473089      -0.15759268       0.06001200      -0.24182775       1.18789101      -0.13044724      -1.20188498
H       17.53702797       4.93498607      13.61296809       0.20781301       0.15133562       0.01289355       0.27547669       0.53127420      -0.26584262
C      -10.78157548     -12.55447735      27.29055533      -0.63380972      -0.01883122       1.51721542       0.71462452      -0.31259090      -0.50849223
C       -9.82933334     -11.66164566      28.13762466      -0.64661351       0.18125045      -0.12501257      -0.42426306      -1.39070082       2.03932571
C      -10.26665279     -14.00359371      27.33328069       0.47037534      -0.11219913      -0.75762782      -0.15587917      -0.82865876       0.37426972
H      -11.78788081     -12.51247549      27.70343822      -0.26789010      -0.05459629      -0.07739837       0.00757260       0.18385145      -0.11763217
H      -10.77340514     -12.25304599      26.22054852      -0.20963766      -0.09314794      -0.00816967      -0.27952042       0.02244473       0.70442885
C      -10.21311353     -10.22213811      28.31621558       0.25184554       0.07685321       1.10503436       0.25749791       0.52840161      -0.35177809
H       -8.75332196     -11.83677694      27.95069579       0.06616245       0.00001602       0.09396612      -0.73706031       0.31540376      -0.21482687
H       -9.98926818     -12.03284756      29.19513068       0.11225704       0.14265348       0.09043550       0.40920782       0.04854220      -0.87487864
Cl     -10.01581533      -9.31041193      26.77421106      -2.51944800       0.25340550       0.40088824      -0.03592389       0.20676497      -0.19787982
H       -9.59461848      -9.68640503      29.05265651       0.14452041      -0.37209134       0.19712518      -0.27126327      -0.43943506      -0.33931243
H      -11.25642568     -10.12362725      28.59604818      -0.06112377       0.19872410      -0.01897518      -0.01307432      -0.02224903       0.00712196
Cl     -11.55767402     -15.31397647      26.78901519      -0.44882674      -0.97517416      -0.35050046       1.05092001       1.30546737       0.29941612
H       -9.95621665     -14.38796336      28.33602379      -0.23459752       0.01883184       0.03995557      -0.43710113       0.58526641      -0.84887457
H       -9.42391535     -14.11576489      26.64630357      -0.19969930      -0.05979584      -0.03346153      -0.41882697      -0.22587846       0.15428127
C        6.69257779      18.72731565      33.58033776       0.10978996       0.79113619      -0.08583765      -0.76906157       1.07362378       1.07906318
C        6.98326971      20.18982141      33.08031591      -0.37811816      -0.37539161       0.57360108       0.20915374      -0.70680684      -0.49855843
C        5.85012768      17.95072126      32.55839721       0.85838708      -0.11154381      -0.01136372       1.85736024       0.53914559       0.19373745
H        7.58951174      18.15488522      33.84921826      -0.29217523       0.07587484       0.23975442      -0.02318696       0.24972126      -0.54934371
H        6.15242608      18.78971953      34.56734722      -0.05198572      -0.33027360       0.14873826       0.19975863      -0.05067893      -1.01385188
C        7.13472324      21.26495261      34.13473452      -0.46672181       0.27034172      -0.84196060      -0.11128196       1.46462381      -0.90658611
H        6.21273254      20.48751146      32.32222035      -0.29622547      -0.26302697       0.05206187       0.39935112      -0.10959635       0.94362986
H        7.91952995      20.21452260      32.51694219      -0.02156389       0.08156006       0.10096697      -0.14973004      -0.25674823      -0.08498944
Cl       8.71680957      21.08118314      35.07743527      -0.96929155      -0.08265524       2.00514317      -0.69224668       0.24209344      -0.56158900
H        6.36056566      21.28062151      34.87420292      -0.38165053      -0.04749720      -0.00637926      -0.23766859      -0.27750266       0.41358832
H        7.07294763      22.29430194      33.63037446       0.15073319       0.10186456      -0.02124220       0.68001729      -1.46068442       0.85919368
Cl       4.18464937      18.49243879      32.48200995      -0.17220940       0.50939486       2.27898121      -0.76313061       0.31282118       0.02530398
H        5.84605333      16.92019961      32.82376886      -0.00761342       0.03699202       0.12348726      -0.12960285      -0.77913350       0.01238940
H        6.31815639      18.07967905      31.57627145      -0.23687456      -0.08328909      -0.10723402      -0.43405464      -0.17436780       0.11396611
C       -5.63643098       5.40302730       2.28589365       0.27313820      -0.68202729       0.10251115      -0.45276874       0.37139675      -1.86786842
C       -4.49619495       4.74226525       3.04506959      -0.33484048      -0.14196200      -0.73627804       0.60252362      -1.33921802      -1.04837835
C       -5.47112508       5.51808806       0.72216036      -0.52125845       0.43897485      -0.38384884       1.02069211      -2.04495573       1.28089976
H       -6.65865385       5.05364951       2.52791512       0.03075426       0.10003957      -0.18863822       0.76236236       0.08252724      -0.07007624
H       -5.57105024       6.43951825       2.58669152       0.03365468      -0.15215427      -0.10415073      -0.35341185       0.47884738       0.26705882
C       -4.63660985       5.07536246       4.53492708      -0.43585661       0.74128455       0.16168628       2.00917125      -0.28908944       0.05396342
H       -3.57177041       5.13018340       2.54605169      -0.10466279      -0.02389646      -0.25469288      -0.54043502       0.00174402       1.13419831
H       -4.34664901       3.62342495       2.87384608       0.25988237      -0.16706586      -0.02738142      -0.82513773       1.33544171       0.41054964
Cl      -6.09108318       4.33215963       5.23272973       0.10702804       0.32168863      -0.12709488      -0.43101865       0.08988199       0.08495976
H       -4.64906131       6.17366883       4.68448786      -0.19255156       0.04460819       0.02644524      -0.28579184      -0.75348485       0.14969462
H       -3.80141925       4.62274686       5.13353076      -0.20935785       0.16910260       0.40816621      -0.70183671       0.64985669      -0.70489162
Cl      -5.71606376       3.89704912      -0.09385538       1.07223508       0.41911552      -0.31770091      -0.19782317       0.10993819       0.26030853
H       -4.45118005       5.71973613       0.40866389       0.18587934       0.06389418      -0.10128871       0.00267006       0.40329450       0.41267630
H       -6.12775183       6.16872587       0.21603432      -0.04441459       0.16914771       0.03128651      -0.87305105       0.79750949      -0.12317494
C       13.46946985      20.23486755       9.87921304       0.26662213       0.97193580      -0.86240892      -0.68805474      -1.66184235       1.02684128
C       12.45980693      19.68096359       8.94454880       0.42592193       0.57007307       0.12436396      -2.75195217      -0.88017291       0.58262277
C       14.77579306      19.78758936       9.33653064       0.14213927       0.22818922       0.38731357       1.19953334       0.02940011       1.09067917
H       13.48744064      21.27574159       9.85183711       0.31199468      -0.07186438      -0.15893136      -0.24143876       1.75646567       0.16731562
H       13.28841417      19.89331227      10.91964823      -0.11216002      -0.08267878      -0.27930977       0.27415887       0.22073138      -0.67986643
C       10.95300452      19.91943000       9.23952069      -0.31879680       0.31309978      -0.24869451       0.86759579       0.63562137       0.41744524
H       12.43459584      18.59270239       8.96334254       0.00323226       0.38444454      -0.07146429       0.79315484      -0.07186250      -0.20576447
H       12.70162671      20.02246310       7.99014182       0.10363435      -0.02123870      -0.00909152       0.13740863       0.40239242      -1.80459440
Cl       9.93963996      19.00211099       8.07796964       0.39574122      -0.30663244      -1.03777663       0.11884160       0.14639196       0.00445238
H       10.60759314      20.96030294       9.26867391      -0.09008639       0.05404475       0.07671939       0.20285212      -0.33208293      -0.29469010
H       10.77591151      19.49246134      10.21201870       0.07720933      -0.20223762      -0.11747468      -0.36306739      -0.09928353       0.26788464
Cl      16.01231130      20.37839229      10.58346154       0.51088743       2.16065455      -1.50908244      -0.02557716      -0.45548686      -0.47207347
H       15.04175659      20.37067418       8.49003347      -0.41907121       0.00693282      -0.04499595       0.15401211       0.25916332      -0.88420308
H       14.86775464      18.71773450       9.09648386       0.10032201      -0.18997213      -0.16749967       0.18199030       0.40195891       0.60678148
C       -5.62050286      10.55281698      37.85859817       0.41878441       0.52380695      -0.43986524       0.11168789      -1.97503757       1.21359205
C       -6.41445706      11.78891947      37.60792711      -0.21110215      -0.00129644       0.07118223      -0.18268974       0.40477157      -1.96219683
C       -4.78247029      10.71667928      39.17668164       0.03042322       0.65132812       0.28917786      -0.72770631       0.12384804      -1.37516809
H       -6.23553030       9.64700091      37.96218586      -0.03028441       0.05145248       0.14296289      -0.24017897       0.48759377       0.27993211
H       -5.03810946      10.20805677      36.97904476       0.00696629      -0.17533439      -0.04856959       0.43722409       0.87977791       0.60337842
C       -6.80669422      11.95927710      36.11613243       0.00801253       0.28362523       0.12940573      -0.52031511       1.33889294       0.14648017
H       -5.77538703      12.60404836      37.87626034      -0.02164326      -0.08556164      -0.00076875       0.19679061       0.88279438       0.09833239
H       -7.32524572      11.86347227      38.18680041       0.04923262       0.15175623       0.05919195      -0.06455170      -0.18303858       0.23025075
Cl      -8.01084056      10.69184256      35.72595848      -0.98408810       0.41376213       0.65040217      -0.35471958      -0.38687074      -0.30883873
H       -6.05584325      11.78543608      35.34356564      -0.22597090       0.02074181       0.11102575       0.35505855       0.20227003       0.62345362
H       -7.25090838      12.99120458      35.90229587      -0.13007169       0.11611384      -0.00085606       0.37692952      -1.60388565       0.37656978
Cl      -5.87751553      10.79807206      40.67388040       0.26883003      -0.57838549      -0.98712940       0.63186812       0.11529724      -0.88276255
H       -4.17561512      11.63770394      39.03737822      -0.10998835      -0.04915711       0.04636072      -0.36530936      -0.66142851       0.84553671
H       -4.21217545       9.83165809      39.37753423      -0.03224109      -0.14746759      -0.21941324       0.55770481      -0.08515764      -0.00561025
C       16.64130578      25.48653601       8.67837979       0.95566971      -0.85487829      -0.39577724      -0.08187398       0.34428519      -1.30005515
C       16.51599094      26.25893033       9.95611805       0.07991439      -0.35416538      -1.00317422       0.19858637       0.79740095       0.95910567
C       16.59507812      24.01392970       9.00368209       0.38830397      -0.01455916      -0.52620317       0.12879169      -0.21328381      -0.86649293
H       15.88132523      25.79109526       7.91009295       0.02110493       0.09725365      -0.17992243       0.51337188      -0.46087915       0.72364414
H       17.63002779      25.73856425       8.22777912      -0.29892038      -0.09149216      -0.28860344      -0.68904912      -0.28263524       0.29528701
C       15.29120153      25.94665901      10.82739821       0.54943106       0.04515000       0.01892822       0.40709889       0.31989288      -0.25695708
H       16.51066242      27.34672551       9.75859746       0.04294254       0.01125134       0.29382368       0.19400547      -0.52848864       0.12175294
H       17.41756094      26.00372413      10.54782966       0.17884178       0.07226199       0.08671597      -0.50541115       0.38968140      -0.09346512
Cl      15.32612157      27.04299725      12.24565719      -0.73140574       1.35688178      -0.52095888       0.02923888      -0.11926453       0.37932658
H       15.35379062      24.90305935      11.21123806       0.00010833      -0.01473839      -0.02000997      -0.59627128       0.96132278      -0.40540367
H       14.35421571      26.28942801      10.35277391       0.13770236      -0.00895638      -0.15075140       0.51426589      -1.07996750       0.00262652
Cl      17.35435318      23.03711906       7.71954966      -0.97968334       0.11320142      -0.50447808       0.23273650      -0.36569005      -0.53504562
H       15.60854081      23.59085559       9.08599820       0.04832494      -0.09069673      -0.16709297      -0.30450416       0.17586462       0.29841658
H       17.18219293      23.79476304       9.86956127      -0.00721769       0.05169136       0.20881819       0.11621954      -0.05882063       0.67867208
C       14.91325740      15.05976569      -4.65027316      -1.11566752      -0.00402742      -0.19268911       0.47790489      -1.68452549      -0.60669625
C       13.59188126      15.63860809      -5.03281550       0.33414166      -0.11261551       0.19382058       0.23105630       0.79794776       1.83428764
C       15.12767009      13.69304620      -5.32340118      -0.17749460       0.45940533      -0.13358455       0.46735424      -0.33239365       0.76361817
H       15.73058122      15.66964987      -5.02661876       0.20612199      -0.15033140       0.05933085       0.05111680       0.13316651       0.10028113
H       15.02829602      14.97937611      -3.55591200       0.11494900      -0.12935070      -0.11761916      -0.22990306       0.01057932      -0.73972070
C       13.30849069      16.07789228      -6.40058157       0.02655846       0.15863440       0.01556518      -1.05862498       0.46504575      -1.76187611
H       13.52573507      16.52246401      -4.40351297       0.10768835       0.05785131       0.16756129      -0.59093678       0.08049858       0.16698009
H       12.84190197      14.91530967      -4.74356154      -0.01060653       0.04113035       0.06813052      -0.51422876       0.03267853       0.09597690
Cl      14.54173850      17.04549154      -7.26064265       0.46716808       0.70217354      -0.21182126       0.60100746       0.03728434       0.08526251
H       12.42939350      16.70404501      -6.44701107      -0.03028868       0.15994046      -0.24578503      -0.12604547       0.40633255       0.58523184
H       13.00203814      15.33401499      -7.10287358       0.14483582       0.09991016       0.01926117       0.39545891      -1.06423295      -0.24352820
Cl      13.83986755      12.37558948      -4.81719101      -0.56936405      -0.45160512      -0.60080273       0.86925751       1.10262954      -0.21767239
H       16.12246795      13.27108420      -5.04981564       0.23565494      -0.21803785       0.04038301      -1.06516731       0.13433707      -0.37019080
H       15.01015213      13.77106454      -6.40176651      -0.13471713       0.12177342       0.17358983       0.04871816      -0.16206405       0.13998640
C       24.10639439      -2.66451696      13.19172026       0.11672014      -0.39392800      -0.04658870      -0.20628577       1.84615338       1.03784955
C       24.02345036      -2.20995084      14.64536117      -0.38380805      -0.49490672      -0.10543281       0.52159464       1.73747814       0.35666499
C       25.11848318      -1.94236043      12.35513198      -0.75185124      -0.03758120       0.11791130       0.88592476       0.64792579      -0.50693989
H       24.25170708      -3.69766841      13.23059931      -0.18011592      -0.11633684      -0.11726918       0.40235212      -1.66732967      -0.23741049
H       23.14112115      -2.47679819      12.74871288       0.08102495      -0.05003025       0.29399766      -0.31846613      -0.04463498      -0.48100936
C       23.67050580      -0.65938731      14.89337100       0.97815985      -0.45913001      -0.73245093      -0.11522028      -2.04780889      -0.37846392
H       25.00456716      -2.38840890      15.06785839       0.42451271      -0.22218904      -0.10916868       0.18575008       0.06239218       0.37195683
H       23.32872494      -2.86062504      15.16694802      -0.12658456       0.22421852      -0.07650142      -0.23220247       0.27916789       0.17345896
Cl      21.98149605      -0.46378867      14.26404496       3.12710742      -0.04600251      -0.44501362       0.06515195       0.43460232       0.21924269
H       24.30471315       0.05670338      14.37786072       0.08394411      -0.13509108      -0.10542035      -0.07112564      -0.30806670      -0.27303582
H       23.68507307      -0.37663085      15.95040948      -0.12201797       0.18630096       0.17192680      -0.17209315      -0.34469071      -0.23236023
Cl      26.88470622      -1.88259132      12.98597645      -1.87034116       0.74571408      -0.69231558      -0.98734516      -0.26500157       0.11114387
H       24.88506061      -0.85605199      12.25700256      -0.04806847       0.04999969       0.07273639       0.10006572      -1.11362755      -0.28688830
H       25.26361568      -2.48132100      11.40887254      -0.09111562      -0.10693958      -0.07959213      -0.23974539       0.68540108       0.12790836
C       29.24579739      -7.08323221      23.92257465       0.65542804       0.16095736      -0.14695350      -0.87837327      -0.05385764      -0.60008609
C       29.23925384      -5.92215922      22.90842587      -0.63743710       0.45732185       0.80197507       0.13837050       0.37604684       0.66109788
C       30.28076801      -6.85492895      24.93496077       0.48590565       0.06272235       0.63198436       2.19961691       0.05568326       0.27108321
H       28.26101655      -7.18054828      24.32933542       0.01703588       0.06210117       0.02591627      -0.57782698       0.12535489       0.71970063
H       29.42628148      -8.09530873      23.54903486       0.14602140      -0.27735943       0.00730776      -0.08659931       0.52304626      -0.86300671
C       28.14964893      -6.11596310      21.87601440       0.68098247      -0.61469364      -0.45567639       0.82279134       1.29271162       0.60900295
H       30.26191704      -5.89847568      22.51658271       0.01670605       0.23300808       0.28129501      -0.34484801       0.35343677      -0.49976379