1024
Lattice="21.722787812766462 0.0 0.0 0.0 21.722787812766462 0.0 0.0 0.0 21.722787812766462" Properties=species:S:1:pos:R:3:momenta:R:3:forces:R:3 mol_liquid.pdb=T energy=-604341.6875 free_energy=-604341.6875 stress="0.003716403851285577 0.00012723862892016768 -0.0010497862240299582 0.00012723862892016768 0.0029424468521028757 0.00021406843734439462 -0.0010497862240299582 0.00021406843734439462 -0.0003027018974535167" pbc="T T T"
C        1.80777853      11.40462222      -4.68003218      -0.61783417       0.13639997       0.21011651      -0.49604452      -0.44786268      -0.39716607
C        1.19611475      12.61871063      -4.40134368      -0.65920188      -0.28861140      -1.08669605      -0.24634606      -1.33965933       0.07336895
C        2.93364463      11.04135775      -4.03853081       0.43644934      -0.59841687       0.63550080       2.81048918      -1.66944170       1.05080199
H        1.39522702      10.67699991      -5.34564143      -0.04321529      -0.00916220      -0.16881257      -0.51171911      -0.09659721      -0.37223643
C        1.83052255      13.46277198      -3.52422236       0.50310486      -0.99094699      -0.43544178      -1.02318728       2.04423809       0.13548681
H        0.17548907      12.62338912      -4.74728791       0.06020866       0.06361051       0.12154904      -0.08237653       1.16279006      -0.13403167
C        3.05084893      13.15031592      -2.95000642       1.07007439       0.20533734      -1.01189718       0.82529736       1.31121993       0.89948404
H        1.40007377      14.46082323      -3.30103986       0.19034545      -0.10616610      -0.24826160       0.19632827      -0.91622174      -0.11923698
C        3.58026978      11.90363110      -3.15260469      -0.00494307       0.49903471      -0.56527400       2.07801437      -0.14538434       0.26784664
H        3.59338568      13.93431083      -2.34390753      -0.02990568       0.17600876      -0.08704384      -0.71765482      -1.17754245      -0.66959953
C        4.97504565      11.45330569      -2.57184596       0.40548351      -0.11536818      -0.37930760      -2.39090991      -0.64498681       1.84706306
O        5.55757998      12.19065780      -1.49238188      -0.40739046       0.26685418      -0.55856761      -0.63274044      -0.01965062      -0.50805652
H        5.68704722      11.40063308      -3.31391789      -0.00120143       0.23413012      -0.12735604       1.55111086       0.44166997      -1.83206248
H        4.86905744      10.37773651      -2.31926036       0.10453000      -0.15666520       0.10394646      -0.13367221       0.57329583       0.25332797
H        5.04476116      12.09549552      -0.67126558       0.05118718       0.29804718      -0.25494571      -0.15452009      -0.15389064      -0.44148424
H        3.42995900      10.02670760      -4.13160937       0.05282648      -0.07440717      -0.09964588      -0.92897975       1.23796964      -0.31814915
C        9.16535912       6.82607238       2.81520299       0.47644689      -0.12543478      -0.48805451       0.33220211       1.21358550      -0.68391997
C       10.38385848       6.43942033       2.30241214      -0.08617016      -0.60856527       0.52274831       0.25830686      -1.67849803      -0.08118087
C        8.37576760       5.94558474       3.49762489      -0.98299915       0.51359872       0.03642679      -1.01051879      -0.84239697       0.84622121
H        8.84077340       7.84803775       2.63331217      -0.13096323       0.01769086       0.11006092      -0.17714538      -0.30272990       0.18385927
C       10.70909242       5.07759646       2.45560953       0.55181249       0.14428840      -0.53549808       0.84812999       1.34919667      -0.91093540
H       11.02061566       7.08636867       1.72202300      -0.15670440      -0.09818257      -0.13328016      -0.02545525       0.19618805       0.13541725
C        9.96564741       4.23968077       3.22983688      -1.61424740      -0.19722468       0.49932504      -0.40508261       0.75838196       0.00062311
H       11.56327652       4.61877838       1.96806936      -0.16488231      -0.06621686       0.13212104       0.05610375       0.44209337       0.08977768
C        8.79001912       4.65244013       3.81943671       0.60455765      -0.05948501       0.67935025      -0.15055837       0.24133880       0.16861197
H       10.38835635       3.30296644       3.31930186       0.08187211       0.08167147      -0.23536960       0.15946983      -1.94320977       0.61232358
C        8.03982171       3.78934556       4.82165260       0.20230437       1.02900344       0.15755745       1.72068214      -0.87070429      -0.46370360
O        8.71305042       2.48205236       4.91054453       0.39628001      -1.23622595       0.63340547      -1.37563729       0.92602348       0.47119856
H        7.02952823       3.68726969       4.51783555      -0.23257401      -0.02084791       0.12030008      -1.06581247      -0.30601171      -0.39231437
H        8.03738339       4.28065649       5.78707083       0.03555510      -0.08365673      -0.05443359       0.10492732       0.05088861       0.27056977
H        8.13166968       1.89803072       5.44330826       0.11309985       0.03059630       0.16597549       0.36980161       0.40968758      -0.44439694
H        7.38631115       6.24555941       3.79984816      -0.11701179       0.15335552      -0.14111220      -0.08921020       0.26135987       0.25801647
C        5.17437674      18.75052346       3.50787888      -0.47535977      -0.68123589      -0.15879966      -1.18612528       2.39990854      -1.38643587
C        4.67936124      20.09860426       3.35006341      -0.46305745      -0.47501416       0.12666243       0.83417392      -1.45882440       1.10244501
C        4.33971058      17.85414557       4.15238141       0.35848556      -0.58411926      -0.25411076       1.08053136      -0.96114147       0.18681273
H        6.11957198      18.48587099       3.00140648      -0.03244014      -0.12508699       0.16274882      -0.80447245      -0.08556746       0.46722925
C        3.54258595      20.52728044       4.05879070      -0.28507843      -0.09829604      -0.64787141       1.42871189       0.65485847      -0.60869926
H        5.29476650      20.79618624       2.82078445       0.00155457      -0.28646628       0.15931870       0.05933464       0.28850394      -0.26739839
C        2.89022017      19.62546299       4.83335663       0.16018074       2.18600161       1.06793410      -0.66349274      -1.65898228       1.00558197
H        3.28623920      21.59588480       4.15284054       0.13458837      -0.07729464      -0.06603764       0.10138506      -0.79790378      -0.54323959
C        3.24634668      18.25964134       4.89311165      -0.36822763       0.20989987       0.09098463       0.63779169       1.02220833      -0.56846577
H        2.08638702      19.94375144       5.46443906       0.04284231      -0.07769305       0.20392053      -0.35832569       0.16743973       0.23643348
C        2.61134839      17.32201097       5.86903531       0.83598037       0.32899672      -0.42152089       0.77405775       0.91372907       0.08902869
O        1.22957229      17.53091604       5.81842576      -0.23987063       0.71905244       0.63683611      -0.21830824      -0.42733717       0.20310274
H        3.02507473      17.57505675       6.87264526       0.23823592      -0.17655865      -0.02221989      -0.45888177      -0.13969204      -0.40172201
H        2.91336228      16.30181244       5.67154206       0.12456193      -0.14542744       0.10706383      -0.17301711      -0.38416791      -0.18498546
H        0.91103242      17.61072307       6.73099366       0.31585475      -0.18090325      -0.07810239      -0.84459186       0.05400397       0.12101112
H        4.64949124      16.80632084       4.15400729       0.20411765       0.00126279      -0.03153443      -0.13537253       0.22109967       0.23202609
C        7.63913964      17.89379613      13.62143541       0.23817045       0.39622714       0.60633436      -0.70718348      -1.35358500      -1.78750348
C        6.78891983      17.56689019      12.51314211      -0.15848379       0.33067303      -0.24359890       0.00334748       1.87816429       0.73982340
C        8.97492599      17.49708962      13.54865538       0.47129789      -0.12154378      -0.07269589      -0.65942520      -0.08640647      -0.39146042
H        7.21512763      18.33698498      14.51494452      -0.10971601      -0.16196143      -0.37692705       0.24627478       0.03269064      -0.16543382
C        7.31201548      16.99440707      11.34422555      -0.18000825       0.54435036       0.07533967      -0.49032229       0.33614948       2.03299522
H        5.74449923      17.98658600      12.54281802      -0.20720299       0.01482268       0.14872567       1.15723109      -0.98316145      -0.02909139
C        8.65878881      16.65702855      11.35400095      -0.23419217       0.03970153       0.69274032      -0.67547184      -0.40676475      -1.49733043
H        6.59360286      16.77971912      10.57285570       0.03177535      -0.06073769       0.18011379       0.38849375      -0.02661077      -0.47690243
C        9.49932285      16.88525228      12.41557399      -0.46434377      -0.19276767      -0.22535806       0.36736286      -0.30980372      -0.62845993
H        9.06723438      16.19200102      10.46099959      -0.04876858      -0.11763610      -0.01034248       0.07964122      -0.05250531       0.06755559
C       10.92478738      16.37731698      12.21379612       0.23101644       0.40698150      -0.65723930       1.03703749       1.49216199       1.71280634
O       11.61276706      16.48349017      13.51383922       0.40867106      -0.31991110       0.01336830       0.24658987       0.18874052      -1.21448183
H       11.56149549      16.93479722      11.46840292       0.08274811      -0.08048749       0.10484804      -1.09116411      -0.11231836       0.47741407
H       10.97798690      15.35177809      11.92019196      -0.07052115      -0.14267432      -0.18127863      -0.45263630      -0.74077708      -0.24936941
H       12.52989056      16.19640781      13.30079862       0.04170738      -0.10634048      -0.02550461      -0.44300079      -0.16316175       0.65058339
H        9.57851388      17.65249505      14.38465587       0.15799711      -0.14197608       0.12739010       0.93301034       0.26770175       0.97313595
C       27.74027008       4.12964952      13.43025550       0.09118021       0.22050404      -0.16524906      -0.37518108      -0.63549232      -0.68938649
C       28.49455306       2.94642977      13.40967314       0.28520409      -0.06048493       0.58221787      -0.98630613       1.55690944       0.98312271
C       27.66484098       4.97436928      14.50918653      -0.76903494      -0.07067362       0.32351431       0.32498243       0.59002769       0.85949302
H       27.15748292       4.41122105      12.56881907      -0.19082582      -0.05437700      -0.28692876       0.16104692      -0.11249137      -0.31031048
C       29.16201347       2.57970961      14.57238918      -0.45029518      -0.72971092       0.22808232       0.09002236       1.06065130      -0.34727025
H       28.55325503       2.45358952      12.47097381       0.25049932      -0.18191534      -0.32585832       0.09505330      -0.82946378      -0.25665221
C       29.18434160       3.45081009      15.67176895       0.38646026       0.14262963       0.81665181      -0.74565750       0.55225295      -0.50514448
H       29.74726217       1.69443567      14.53196049       0.34425510       0.27803497       0.25591121       0.54512089      -0.57501388       0.22227529
C       28.36610726       4.64114324      15.66315672      -0.24162351      -0.17481707       0.31337244       2.16541481      -1.16098642       0.73552376
H       29.91522335       3.25268333      16.48007252       0.02098053      -0.17422084       0.01100930      -1.04732275       0.15786630      -0.32771143
C       28.45650141       5.48144975      16.93124269       0.44324883      -0.65070004      -0.02956044       0.00576782       1.14292741      -0.71638602
O       29.04381362       6.84103600      16.73452178       0.41146050      -0.97147946      -0.20297999      -0.22852445      -2.10586739      -0.40384623
H       29.06386249       4.89742463      17.63593775      -0.14614719      -0.31933184       0.17744060      -0.42500681       0.49409184       0.12842458
H       27.42812572       5.65197661      17.28605895      -0.00446312      -0.06335813      -0.01883349       0.64353400      -0.03947346       0.29227620
H       29.85005176       6.64747486      16.20223848      -0.06992751      -0.25080535      -0.22421765      -0.42942101       0.30234224       0.52205187
H       27.21365863       5.97538577      14.41373443       0.08191817      -0.31903074       0.18765606      -0.09854438      -0.79378420       0.19961542
C       19.06829941      13.60287923      -3.37725173      -0.79704613      -0.17171171      -0.48943615      -0.73806822      -1.07004356      -0.68726540
C       19.22341036      14.83069443      -2.79184196       0.19353731       0.80658566      -0.02114440      -0.11620611       1.53620970       1.37037063
C       17.80378989      13.11239834      -3.62361710       1.01503685      -0.91441110       1.01968907      -0.53292924       0.11480474      -0.35391104
H       19.90883730      12.99458912      -3.65921323       0.06309699       0.11025794      -0.07834560       0.27929670       0.10076879       0.01709162
C       18.18356809      15.62585557      -2.29296802       0.85945729       0.27354328       0.04276505      -2.25445294      -2.19167733      -2.10393810
H       20.21312725      15.16099095      -2.62719756      -0.00851971      -0.15656435      -0.05881055       0.93352282       0.40871722       0.09081171
C       16.84032729      15.09545077      -2.56875777       0.05916290      -0.68913396      -0.22126903       2.13141799       1.63194990       1.20889378
H       18.31271015      16.61649047      -1.89737837       0.21482337       0.10160432       0.14022487       0.14369349      -0.03036350       0.28137982
C       16.70009970      13.90622968      -3.22274387      -1.06993202       0.79162767      -0.54848652       0.15155059      -1.97392440      -0.04555160
H       15.94825837      15.60386137      -2.20157609       0.11936307       0.18279703      -0.13135905       0.52605414      -0.17175092      -0.20055237
C       15.34102112      13.25051699      -3.30470160      -0.71526819      -0.60533906       1.33267630       0.18501316      -0.41500711      -0.25313553
O       15.40522007      11.83997797      -3.38628278       0.53881641       0.78403641      -0.50744897      -0.16387792      -0.08443616      -1.09488332
H       14.75531887      13.61730365      -4.13661439      -0.13886913       0.07921541      -0.17745677      -0.13249475       0.00259128      -0.20321457
H       14.82357329      13.45044765      -2.40405531       0.18553256       0.03418614       0.32677332      -0.81078780       0.81960458       0.88250577
H       15.77784151      11.49027535      -2.56691652       0.26459351      -0.24001627       0.20752377       0.17904401      -0.36312222       0.42564169
H       17.62144970      12.14285870      -4.14273545       0.03756179      -0.26768371       0.01523804       0.27311900       0.95774603       0.67358261
C       11.73504568      19.55323252       0.32569014      -0.43003719      -0.19276226      -0.87676428       1.42209888       0.53014719       1.70883560
C       12.18169341      19.51410691      -0.94623127       0.40543332       0.15727792      -1.02001036      -0.13129723       0.29907972      -2.82152224
C       10.78434040      18.68101544       0.80654633      -0.34988509      -0.01020751       0.16274397      -0.16415268       0.33663866      -2.37103319
H       12.28101184      20.27206067       0.95201372       0.01250687      -0.08864281      -0.07274228      -0.63400114      -0.46961421       0.17260541
C       11.50219601      18.73815479      -1.92807449      -1.42230065       1.17187974      -0.76986738       1.04408455      -0.09109753       1.56337464
H       13.00135845      20.20502704      -1.23624327      -0.05608260      -0.07944927      -0.07380128      -0.83937436      -0.58126450       0.00243742
C       10.58985865      17.77854783      -1.48722237       0.13803801       0.31610577      -0.30387413       0.55576426       2.30018258       1.95099664
H       11.79760028      18.90509417      -2.93791988       0.26913010       0.19182416       0.14433947      -0.00741494      -0.43868104      -0.59459347
C       10.19851326      17.81400121      -0.13740676       0.25359357       0.78253747      -0.00861286       1.24789464      -0.11378464       1.03182697
H       10.07890800      17.09293346      -2.06337687       0.02267704      -0.28590583       0.02869668      -0.77770621      -1.16379797      -1.62368226
C        9.26787509      16.79432989       0.41252578       0.71882406       0.17693600      -0.79724177      -0.56293005      -0.03772543      -0.79226679
O        8.33677657      17.37917629       1.27480500       0.29688077       0.28060654       0.57696633      -0.52541023       0.07429853       1.76819110
H        9.76217382      16.06027912       1.03252202      -0.11017226      -0.03363416      -0.02740121       0.33864534      -0.35754600      -0.22227636
H        8.72858610      16.35002698      -0.41449813       0.02560941       0.25052119       0.11852709       0.06352010      -0.65076476      -0.11080652
H        7.61229131      17.75388722       0.79902360      -0.03880101       0.19879078       0.03737443      -0.60933721       0.30925688      -0.68234944
H       10.44610530      18.82373906       1.78974387       0.08681011       0.05803895      -0.03573128      -0.48998895      -0.37734419       1.08613527
C        2.01137610       0.20679927      18.99961314       0.63100120       0.51882378      -1.17797058      -1.13330185      -0.56772625       0.96520931
C        0.62768274       0.01683538      19.12565838       0.50761890      -0.84521415      -0.07963333       0.93412536       1.94784057      -0.05814900
C        2.51802708       1.45273291      19.36866593      -0.32298552       0.87455816       0.38760432       3.65917325      -0.87982965      -0.52431357
H        2.65640440      -0.65616861      18.81366706      -0.09016814      -0.31833334      -0.12570729      -0.10583031       0.65912700      -0.16559821
C       -0.16368975       1.14648393      19.46717447      -0.52625058      -0.16837526       0.71702238      -0.38070309      -1.96148288      -0.80791122
H        0.18766991      -0.92622923      18.93169784       0.22862966      -0.10103730      -0.12709520      -0.44299668      -0.54500401      -0.16819036
C        0.39027789       2.34391056      19.79536498       0.70303715      -0.11927256      -0.27519012      -0.08424350       0.34147912      -0.14573810
H       -1.23868860       1.04158204      19.36133494       0.08742118       0.05889875       0.18461407       0.15061243       0.04829988       0.46118858
C        1.76847156       2.49812069      19.76773727      -0.34795713       0.33034983      -0.84620704      -0.17810586       1.79915714       0.83046615
H       -0.27319936       3.15379330      20.01738293      -0.06761279       0.02997492       0.07768138      -0.09417202       0.45234141       0.15642452
C        2.43049491       3.80874117      20.25673076      -0.33361972      -0.58972681      -1.17589946      -0.59193617       0.30260530      -1.29573584
O        3.69393895       4.09936184      19.66641807       0.12754341      -0.31991232      -0.47147086      -0.12856761      -0.56253111       0.12512752
H        2.55941624       3.72175118      21.34758584      -0.14712468       0.02493422      -0.03665635       0.03841724       0.37335077      -0.40635985
H        1.75747379       4.67594124      19.98380118       0.18602072       0.16480152      -0.20200119       0.31631699      -0.92991960       0.72698200
H        3.76665485       3.73675048      18.75836746       0.06599046       0.00196622       0.04772312      -0.40077457       0.39076996       0.35566533
H        3.65389393       1.62034408      19.36735707       0.20040400      -0.04159327       0.13139108      -1.80709422      -0.51396263      -0.12806761
C       12.89993345      20.69952287       4.32838763       0.66594240       0.77720394       0.07916715      -0.31922102       0.79680479      -0.31745034
C       11.78312049      19.91690424       4.47440791       0.52773315      -0.22860605      -0.33257187      -0.67055082      -2.61656475       0.43025869
C       12.84566625      22.00294203       4.78395403      -0.35587303       0.29377725      -0.55351396       1.88839328       0.01456558      -0.88029629
H       13.79697098      20.44580295       3.79220567      -0.06636374      -0.13292363      -0.01799230       0.03295217      -0.69522858       0.04860704
C       10.60832642      20.42080944       5.05778918       1.37748670      -0.32959710       0.47331032       0.13737768      -0.62861812       0.82149923
H       11.86925595      18.80685905       4.31688983      -0.28366476      -0.22140573       0.16795513      -0.27643362       1.26720369      -0.30066141
C       10.65656666      21.71331535       5.55582378      -0.20623785      -0.24742260       0.14991091      -1.04875100      -0.79587579      -0.26370937
H        9.69986282      19.79988393       5.33436293       0.21096269      -0.00164825       0.00740165       1.38885057       0.67199284      -0.77443999
C       11.76437557      22.51979741       5.42435231      -0.72868866      -0.89709120       0.31058828      -0.32104161      -0.08404630       0.09736478
H        9.75065194      22.04632030       6.01393474      -0.17147095       0.18020071      -0.11264950      -0.17226146       0.48276940       0.38017184
C       11.77104064      23.84061120       6.04839893      -0.50247893       0.03365390      -0.88775126      -0.28073135       2.29155064       0.95925200
O       12.51973292      23.86794042       7.29274434       0.40003072      -0.15443127       0.97084919       2.19062090      -1.47770846      -1.52499723
H       10.75596643      24.12474116       6.28271745       0.00399112      -0.14403264       0.17542188      -0.15784700      -0.04105711       0.08397892
H       12.18196277      24.69831697       5.48371751       0.16819191      -0.00348329      -0.11536918      -0.18316606      -0.72443515      -0.48021102
H       13.40844635      23.54087414       6.90357099       0.30558026      -0.39264896      -0.01771164      -1.57085001       0.94799149       1.71243000
H       13.75352059      22.56788907       4.57144672       0.10461438       0.29808778       0.02950361      -0.39038426       0.33978838       0.35637492
C        8.84096465      10.60623204       2.16182810       0.15786353      -0.15222068      -0.25599965      -0.71039236      -0.98438591      -0.31924617
C        9.02555885      11.87325084       2.65891961      -0.48119743       0.01794821      -0.81118658      -0.74786693       1.15017974      -0.43840528
C        7.60694556      10.21117965       1.63045910       1.00665931      -0.85049523      -0.50521197       0.74360460      -0.00823027       0.66999233
H        9.57960917       9.83456850       2.23114537      -0.23618961       0.08998909      -0.02962305       0.69731778       0.05163299      -0.05227845
C        7.99294054      12.83752554       2.55973817      -0.06370657      -0.14704935       0.43024815       0.13223828      -2.18498516       0.22241333
H        9.95648990      12.18877890       3.09115373       0.04895140      -0.09958362       0.11712957       0.28828108      -0.09683424       0.10593478
C        6.72107952      12.43565310       2.11314354      -0.68226125      -0.13578588       0.67447467       1.13657594      -0.16628334       0.97810942
H        8.19110054      13.76771491       3.01923842       0.16325459       0.16784742      -0.12546913      -0.16503003       0.82167661      -0.13413283
C        6.55536954      11.09817519       1.73151969       0.62303623      -0.06479057      -1.02911745      -0.55343980       0.65309638      -0.73182088
H        5.88953814      13.12428353       2.23644859      -0.13579862      -0.08898362      -0.28286624       0.10578323      -0.34770721      -0.46749565
C        5.26896421      10.56368683       1.23277242      -0.81869396      -0.43536932      -0.83772122      -1.35413790      -0.88705701       0.16926977
O        4.26038393      11.49376109       0.92602688       0.04198574       0.09752141       0.44744225      -1.06480372       0.73114455       1.07328010
H        4.85448959       9.73332146       1.83295783       0.00622777      -0.05609364       0.26582434       0.27099180       0.50827873       0.27813786
H        5.45479787      10.06572801       0.31659272       0.22101643      -0.04511038       0.09894824       0.49756384      -0.39650309      -0.98717517
H        3.59900572      11.56860369       1.66918037      -0.41134164      -0.15841093      -0.12163011       0.80298030       0.00635605      -0.98988521
H        7.43988758       9.19410787       1.21386009      -0.20943343       0.25215944      -0.07421823       0.15216351       0.86636937       0.41302580
C       10.65427041      22.61452792       2.11460141      -0.56863152      -0.56688987      -0.58600542      -0.90280217      -1.13277590       1.37978220
C       11.72111740      23.38584422       1.76195609      -0.77382133      -0.43360366      -0.18148454      -1.56357360      -1.33755684      -3.06033254
C        9.79699950      21.84748137       1.27911907      -0.38856177      -0.09718175      -0.52626560       1.65812373       1.82205343       0.24218237
H       10.44643175      22.52095087       3.14806784       0.33869585       0.08209046       0.03203395      -0.14877768      -0.05257313       0.87654650
C       11.86932427      23.48505008       0.34984468      -0.20719322       0.06060432      -0.11540040       1.60466170       0.67759657       1.10884213
H       12.39374554      23.77899315       2.46122418       0.23365039      -0.12674580       0.29851091       0.63688672       0.77678043       0.74039030
C       11.09539743      22.82636670      -0.54389056       0.26773511      -1.07351016      -0.36383722      -1.65619612      -1.63002431       1.21179688
H       12.71395348      24.04758976       0.00815888       0.09701226       0.00666999       0.04044565       0.28002125       0.40274209      -0.42585734
C       10.05251759      21.94926348      -0.05023713      -0.53059405      -0.33136379      -0.52018937       0.11147122       0.97923458      -2.42846727
H       11.26400337      22.86489298      -1.59511666       0.00907962       0.00898782       0.29395630       0.10858491       0.20165217      -0.27884814
C        9.17266120      21.29919999      -1.09281901       0.25620632      -0.52873140      -0.48640744      -0.40405473       0.54180914      -1.07100809
O        8.62537568      22.29963613      -2.02500537      -0.48509959       0.51663958       0.31028346       0.58327270       0.02298987       0.85083336
H        8.34418715      20.82561540      -0.60191268       0.02695818      -0.12953314       0.07153733      -0.36336488      -0.38235560       0.29635412
H        9.64912637      20.58624844      -1.77128047       0.24499119       0.03918756      -0.03089235       0.33360356      -0.09592001       0.63140303
H        7.79204885      21.97555524      -2.37479833       0.17766145      -0.12945228      -0.06221715      -0.33781934      -0.21557027      -0.23872890
H        8.98587253      21.30874853       1.71999066       0.07179031      -0.01341390       0.17359582      -0.22480851      -0.33335295      -0.03633791
C       12.85189642       8.77744117      11.98206883      -0.37828901       0.70993635      -0.06806461       0.36816946      -0.34237072       0.35619420
C       11.53522383       8.52048740      12.09501593       0.25443642      -0.28202516       0.31435570      -3.40096617      -0.45355615      -0.63419116
C       13.53960437       8.31836632      10.87756205      -0.02885758      -0.53323328      -0.38170347       0.91142249       0.64511859      -0.58472717
H       13.27721228       9.30382375      12.79526878      -0.03886475       0.13270307      -0.00880198       0.91595626       0.32509744       0.37521052
C       10.77636854       7.94013571      11.02118601       0.24094442      -0.61683124       0.30900871       1.29925394       1.00678849       1.77536094
H       10.94882143       8.86777378      12.95199679      -0.04392572      -0.03297811      -0.00769579       0.53634894      -0.31452763      -0.29727575
C       11.46823610       7.70355093       9.86428365      -0.52556056       0.74313290       0.39409601      -1.84508681      -1.51040244      -1.68689561
H        9.72092238       7.77786024      11.17823157       0.10314133      -0.18612172      -0.25715707      -0.01038317      -0.00356448      -0.38747045
C       12.85132235       7.81190968       9.79737338       0.84103576       0.32893104      -0.54304459       0.22407803       0.28971756      -0.91595179
H       10.86193444       7.33117328       8.96379542       0.19393123      -0.01831497       0.08651481       1.25161386       0.62809694       1.30649817
C       13.49374757       7.57570726       8.43406491       0.77624428       0.29081105      -0.93629283      -0.01859769      -0.18699978       0.60546619
O       14.00656544       6.27677850       8.19826339      -0.31110304      -0.39891973       0.37452040      -0.22385614      -0.83400595       0.72184390
H       14.30878972       8.25433790       8.24151314       0.02354440       0.18112910       0.27880497       0.10089677       0.38948667      -0.00419688