1024
Lattice="22.080285090363766 0.0 0.0 0.0 22.080285090363766 0.0 0.0 0.0 22.080285090363766" Properties=species:S:1:pos:R:3:momenta:R:3:forces:R:3 mol_liquid.pdb=T energy=-604352.9375 free_energy=-604352.9375 stress="0.002973147202283144 -0.001101901289075613 0.00033688306575641036 -0.001101901289075613 0.0030527610797435045 -0.000287955830572173 0.00033688306575641036 -0.000287955830572173 -0.0013264656299725175" pbc="T T T"
C        4.34717664      10.76961949       2.43715566      -0.28966003       1.37651318       0.66428497       0.17315602      -0.82210481       0.81834012
C        4.83334373       9.79753978       1.58661754       0.18310674      -0.24959201      -0.27107376       0.55840766      -0.96866035      -1.32363772
C        4.54604386      10.70571497       3.80297201      -0.24031953      -0.08678967      -0.12115915       0.19743381       0.07348847      -1.05668557
H        3.78837936      11.52778835       2.00678424       0.04579869       0.10513356      -0.04017952      -0.85591561       1.57532525      -0.53025806
C        4.70374677       9.80053267       0.04937315      -0.13723833      -1.29944042       0.19121947      -1.31063223       0.09644189       0.24107510
C        5.57089789       8.77322747       2.17094761       0.27711291      -0.13174671      -0.13213689       0.87404639      -1.41051137       0.29856539
H        5.21335155      10.59628963      -0.50749201      -0.15941163       0.12307335       0.05006338       0.28882444      -0.10149096       0.59690452
H        3.64881694       9.88583116      -0.30984007       0.26034827       0.16117623       0.09923921       0.65286726      -0.15162385       0.58335012
H        5.06345110       8.83169275      -0.27366749      -0.05343931      -0.06547111      -0.10016616       0.10240372       0.03643978      -0.36706048
C        5.88779694       8.77799435       3.54955554      -0.15178634       0.02667928       0.06228420      -0.19454758      -1.28546727      -0.71491742
H        5.89331512       7.85835707       1.59184640       0.21356921      -0.20350193      -0.10087258      -0.15443282       1.45922494       0.47752750
C        5.25952178       9.64536738       4.37133544      -0.44497693      -0.43764448      -0.65775109      -0.91121352       2.77839279       0.17149365
H        6.55360812       8.09159324       4.02986521      -0.19398460       0.18236184      -0.05700912       0.21472025      -0.69498307      -0.23645651
O        5.39544237       9.70401662       5.70666263       1.55465194       0.14033070       0.05609350       1.60832596      -2.04221678       0.25808230
H        4.37810970      11.57297773       4.39998868       0.24137505       0.26850178      -0.01435430      -0.67212385       0.28521565       0.32943714
H        4.85259609      10.37541708       6.10859624       0.07227248       0.02461745      -0.04290192      -0.81117094       0.76912570       0.38739264
C        3.58983255       0.65840397      12.36378504       0.09993101      -0.44033314      -0.19669991      -1.63958228       0.95043457      -1.04824209
C        2.63076274       0.29762085      11.40364373      -0.50831764      -0.38144415      -1.05278361       0.40901613      -0.34260947      -0.92226303
C        3.53644622       1.98480123      12.74928789      -1.25875173       0.30750309      -0.37404554       1.47922266       0.90629381       1.77201772
H        4.27610949      -0.08191288      12.71619590       0.15206870       0.07056119       0.06846550       0.34319901       0.09248315       0.13720571
C        2.70912866      -1.01864798      10.76126841      -0.03810714       0.40971249      -0.23619917       0.72152883      -2.20258689       1.09670997
C        1.71986270       1.18423341      10.86739317       0.04061976      -0.21830757       0.38588379      -0.06526381      -0.28498834       1.36416554
H        3.58130689      -1.09588664      10.14185675       0.07208297       0.14616504       0.25039543       0.54879934       0.06325823      -0.54341024
H        1.86192448      -1.30884962      10.16346849      -0.17433340       0.08613024       0.28492148      -0.40437859       0.06012553      -0.01699098
H        2.89206364      -1.80730668      11.53780868      -0.23550820       0.07673494       0.18559088      -0.44562149       0.52071607      -0.66424060
C        1.56523263       2.39457688      11.48844211      -0.79023440       1.34072649      -0.29432279      -1.01433551       1.56530750      -1.72230387
H        1.03189272       0.89871006      10.10186545       0.04532455       0.02013820      -0.23259530      -0.18232794      -0.25774476      -0.34169444
C        2.49738958       2.83758829      12.36602215       0.75664789       0.92371535       0.02615376       0.57196617       0.36775124       0.97584379
H        0.79603765       3.07182413      11.11407502      -0.01494234       0.07160795       0.12052812       0.24115862      -0.17917316       0.27665713
O        2.39694489       4.10858206      12.94023179      -0.22907477      -0.75404083      -0.76774261       0.27672905      -1.23766017      -0.31567132
H        4.30506281       2.44048788      13.44006022      -0.05327947      -0.15702412       0.19775304      -0.90127230      -0.80499220      -0.76175582
H        2.95157966       3.98782085      13.71905932      -0.18068585       0.19590093      -0.04300506       0.14891583       0.86373866       0.28847945
C        9.83628365      -4.13085602      18.80004072       0.32248825       0.70152732       0.24863241       1.05999899      -0.47194958      -0.32414410
C        8.60740999      -3.47065923      18.75722043       0.14244962      -0.39283951      -0.44160490       0.97113490       1.09158480      -2.27201581
C       10.78172449      -4.07984778      17.75095054       0.19042261      -0.01612096      -0.14247210      -0.88304663      -0.37199402      -0.10608312
H       10.14609002      -4.71974707      19.67274151       0.08741914      -0.14323106       0.04208957      -0.43166682       0.29554141      -0.20953369
C        7.67277561      -3.48988850      19.83783196      -0.54844761       0.13379528      -0.02723209      -1.54989600      -1.35765755       2.69960451
C        8.28741429      -2.72642483      17.60270953      -0.50423929      -0.72370280      -0.16504786       1.15726376      -0.04304163      -0.35080081
H        8.11314598      -4.12963119      20.65396605       0.13437210      -0.11538710      -0.22048895      -0.77466732       0.92814231      -0.37519759
H        6.76432797      -3.99794967      19.51653760      -0.05332965      -0.08742603      -0.12060865      -0.12409201      -0.30596513       0.01031218
H        7.25834125      -2.53436144      20.21233684       0.01340766       0.28659737      -0.07601391       0.90799022      -0.34627485      -0.15477392
C        9.28661070      -2.59658654      16.63322685      -0.20182220       0.55771773       0.01509292      -1.11594629       0.40695515      -0.68681967
H        7.31988173      -2.22402167      17.43438205       0.03739217      -0.21471889       0.14469769       0.66724312      -0.30003047       0.41899812
C       10.46869212      -3.28125703      16.65030368       0.26750269       0.49803446       0.07002195       1.49170589      -0.60379088       1.53341091
H        9.20436213      -1.97175656      15.76226390       0.02447285      -0.16390521      -0.23923344      -0.74751204       0.24124494       0.02153444
O       11.44599022      -3.08218718      15.68644076      -0.29162769      -0.96203599       1.66282123      -1.04739869       0.43352151      -0.48983473
H       11.69308748      -4.68492926      17.75426781       0.02771693       0.12101893      -0.02027665      -0.30176431       0.43031448       0.24229543
H       11.02172151      -2.46754595      15.04442574       0.08107082       0.28594742       0.15113945       0.50369167      -0.29099792       0.15292831
C       21.81471074       8.84088704       9.79470261       0.28542263      -0.13846754      -0.26786191      -1.41535580       0.57443917      -0.10021961
C       22.31350266       7.67274378      10.34150871      -0.40097130       0.24964679      -0.18838215      -2.54202747      -0.48441267       1.06955504
C       20.49246574       9.23216495      10.03401575      -0.18410800      -0.27864196      -0.42230585       0.78956425       0.02553684      -0.83313578
H       22.32517806       9.49750674       9.12536409      -0.33630899      -0.13436230      -0.02058074       0.98146379       0.16995262       0.02370834
C       23.71450677       7.34843297      10.46222509      -0.29155773      -0.44991762       0.43976357       2.46059418      -0.64489150      -1.22094297
C       21.37838161       6.84297222      11.00930995      -0.37933851       0.49452060       0.65901445      -0.29722399       2.59774923      -1.10244274
H       24.24708111       7.73590142       9.56727540      -0.12167530       0.10854451      -0.05538698       0.05187148      -0.04882310       0.75229704
H       23.96303952       6.26284426      10.47488248      -0.18315636       0.07051296       0.08359309      -0.44839096       0.66161484       0.16959541
H       24.12100882       7.79947869      11.37317325      -0.34796491       0.02198581       0.55185126       0.13869584      -0.02160350      -0.28864273
C       20.03784412       7.21597270      11.15558464      -0.17544233       0.43659436      -0.85050973       1.07152832      -3.50734663       0.88483709
H       21.79259580       5.99977240      11.43418860      -0.12995862      -0.05575426      -0.10695096       0.33414862      -1.90889931       0.87373197
C       19.63582625       8.40717470      10.69132003       0.62782747      -0.16639053       0.11242710      -1.04332995       0.89870173       0.12008710
H       19.33313656       6.47427063      11.59197914       0.13149281      -0.18335397      -0.11765143       0.47708538       0.86800629      -0.16946216
O       18.34751388       8.81525468      10.87005111       0.46531066      -1.44330185       0.82137432      -1.43924427      -0.87491530       1.63968635
H       20.05195799      10.12770041       9.63634402       0.16883912      -0.00864438       0.07883830       0.27092457       0.35828221      -0.16315579
H       17.92696746       8.25823086      11.61151430       0.03271964       0.09082935       0.12142025       0.79622555       1.06334257      -1.67442942
C       -0.33839361      11.49761281      24.60719305       0.25564655       0.07757370      -1.18313452      -0.49676728      -1.24714625      -0.06408733
C       -1.41886326      10.57089279      24.68604432      -0.02872714      -0.13760338      -0.06519670       1.02236414       1.38943553      -0.09045040
C        0.40512198      11.63601848      23.44338025       0.19909873       0.14930200       0.29956443       0.89396024       1.11453462       0.23982532
H       -0.02451947      12.02549889      25.46645607       0.20677611       0.16523424      -0.12191055       0.11605264       0.41512930       0.75237656
C       -2.31513937      10.42958180      25.87148249      -0.86671032      -0.03416412       0.93761939      -0.69934613       0.79752499       0.38638887
C       -1.75665488       9.90036611      23.52962093      -0.20260328       1.00991033      -0.51842201       1.24732077       1.55177057       0.37972552
H       -1.91857199      10.75029359      26.81654203       0.16516129      -0.27484629       0.09114385       0.69055426       0.34535092       0.27968138
H       -2.72037187       9.45966290      26.08783176      -0.14937172       0.15159373      -0.06257681       0.19894660      -0.69679022      -0.52881038
H       -3.21473235      11.03934171      25.73759982       0.01434660      -0.15472848      -0.34597142       0.09280384       0.06930371      -0.14370342
C       -1.06342071      10.09139059      22.35684775       0.73619064       1.90311116      -0.67359779      -1.50406098      -0.54453897       1.12388039
H       -2.62578530       9.37270478      23.62291233      -0.07870932       0.04884117      -0.05930256      -1.98513675      -1.81662512      -0.34408784
C       -0.01160668      10.94146081      22.35023567       0.93854024       0.12081344      -0.22317190       1.72138810      -1.21641541      -2.37976003
H       -1.35995556       9.54918672      21.50346782      -0.10057442      -0.02138296      -0.28322286      -0.05408453      -0.40893447      -0.97454011
O        0.79508723      10.85750500      21.20782547      -0.28153787       0.13686023       0.47442733      -0.48036861       0.70943820       0.12854314
H        1.32661357      12.26541857      23.31124268      -0.30637496      -0.10489415       0.23992363      -1.15151405      -0.59928966       0.57110804
H        0.27223068      10.43842320      20.49994769       0.09069981      -0.10235625       0.03136728       0.26744729       0.23595196       0.33090842
C        9.48118132      21.06665358       3.17274972       0.30125648       0.18435625      -0.82186465      -1.24839008      -0.49458289      -0.51292312
C        9.34814975      22.21794146       3.93480150       0.52472453      -0.09937072      -0.91850567       0.75885600      -0.38827360       0.14108342
C       10.27567058      20.02303995       3.55037793       1.40117644      -0.67383669       0.28762976       1.96377897      -1.14555144       0.55918998
H        8.86662605      20.90678758       2.27647393      -0.13146233      -0.08594339      -0.04607729       0.18116668       0.32958218       0.48306701
C        8.44051387      23.29094943       3.46811015       0.00479087       0.46757347       0.39415660       1.15137148       2.41361332       1.49260592
C       10.23290445      22.34326866       5.00978959       0.08557323       0.18844232       0.30299619      -0.53283083       1.16905212       1.08114147
H        8.19248297      23.17429713       2.46558998      -0.16760598      -0.08873601      -0.09032509      -0.57339501      -0.40739271      -1.60331774
H        9.04944517      24.24410308       3.49356293      -0.25963088      -0.06677789       0.36831281      -0.90189922      -0.73249894       0.06529440
H        7.52155584      23.50189242       4.02061681       0.26038246      -0.11030274       0.37907880       0.28800812      -0.34780437       0.26348153
C       11.07166779      21.33210200       5.45027985       0.47935291      -0.10954110       0.01210642      -0.19880337      -0.76348305      -1.73881388
H       10.24614465      23.27376096       5.60249165      -0.21688409       0.13326185       0.04796976      -0.16680850      -0.43525338      -0.46468419
C       11.11833426      20.17089617       4.69022849      -0.27633783      -0.30285045      -0.39772216      -0.01893142      -1.70879006       0.02991265
H       11.76544643      21.39590777       6.25040585      -0.00991104       0.04692305      -0.01964037       0.07792202       0.41408134       0.66258311
O       12.01562963      19.15029688       5.15685735       0.40292100       0.65046939       0.47900808      -0.96272373       1.77493250      -0.61025369
H       10.31754161      19.11996494       2.90699031       0.00350996       0.09714957      -0.08687328       0.09857713       0.65545380       0.73273671
H       11.67965155      18.28218146       4.95243392      -0.08434122       0.00236423       0.18570038      -0.35810995      -0.34775329      -0.24314742
C       -3.35718365      17.72141187       6.11010341      -0.50187336      -0.44083378      -0.70424847      -0.35388511       0.01489025      -0.71327025
C       -4.02688304      16.50863780       6.21574516      -0.22378932      -0.54273321      -0.19099467       0.70635724      -0.59739250      -0.58316368
C       -2.27401123      18.04521025       6.84332833      -0.43981028      -0.58315449       0.84981658       2.11442065      -0.44866371       1.36214900
H       -3.67539319      18.42166314       5.39286443      -0.12042869      -0.26396586       0.03588542      -0.44346973       0.55718666      -0.73062372
C       -5.25022323      16.29192445       5.38963883       0.41138069       0.94680176      -1.07497777       0.40330729      -0.94484627       0.12397783
C       -3.47703001      15.53126539       7.02275834       0.24157069       0.26746669      -0.44098072      -1.00378203       1.17532349      -0.36937302
H       -5.04530812      16.41597669       4.33169572       0.11047468      -0.22659755       0.27069717      -0.17468467       0.25840661      -0.11067434
H       -5.94108654      16.99589010       5.76379575      -0.08707169       0.17556972       0.01323323      -1.17928982       0.90527821      -0.14778402
H       -5.71182302      15.31155823       5.52537554      -0.02891556       0.19696296      -0.02043181       0.25930747       0.02929292       0.09167351
C       -2.39634839      15.83429199       7.80038631      -0.49956781      -1.31552683      -0.55160341       1.43365002      -0.09402077       1.70466292
H       -4.04535776      14.64947041       7.11867833      -0.09271851      -0.09711343       0.18479682      -0.12036645      -1.18668318       0.16683611
C       -1.80528797      17.08143519       7.76018967      -0.34848350       0.33998215       0.71469530       0.05697801       1.10051453      -0.74026704
H       -1.97981126      15.17108561       8.55522209      -0.15560099       0.05825506       0.15415000      -0.26533538      -0.26513246      -0.32323128
O       -0.73980037      17.48173646       8.51574945       0.10783550      -0.41587605      -0.08659650       0.17241257      -2.07432032       2.01807284
H       -1.60814033      18.92238778       6.74521903      -0.13647031      -0.01773833       0.21332214      -1.02711296      -0.27461627      -0.08092195
H       -0.61021842      16.79277562       9.28231534      -0.20036966      -0.15271558      -0.08598620      -0.39276934       1.55184209      -2.09167862
C       14.12032441       7.35494283      11.18550096      -0.60215153       0.73554563       0.08848081       1.81220365      -0.74659699       2.02392840
C       13.53950172       8.41045297      11.80593866      -0.56496142      -0.35693588      -0.77438488      -0.89710140       1.09372294      -0.77760601
C       15.29505969       6.81446567      11.68500872      -0.72535565       0.53990441       0.53628491       0.27232665      -0.23791936      -1.23581886
H       13.56733401       6.84469412      10.50285434      -0.26494476       0.09171143      -0.24729446      -1.07424212      -1.20947611      -2.15573454
C       12.16633165       8.76898077      11.37302129      -0.18060880       0.11337474      -0.74901120      -0.51956964       1.00290418      -1.41527176
C       14.22248706       9.07491742      12.76408954      -0.09738233       0.08971323      -0.08209878      -0.08991244       0.27156091       1.77256370
H       11.84925562       9.84882774      11.33407951      -0.39939087       0.02720110      -0.23602209       0.83898342      -1.00175166       0.33520865
H       11.49031707       8.29832276      12.07686937       0.03665573       0.07035965       0.05938193      -0.49134058      -0.44905895      -0.54104614
H       12.15430345       8.42362467      10.30175919       0.09700021      -0.10455122       0.17268827      -0.98020053       0.07689050       1.17070806
C       15.39831992       8.55907649      13.27343799      -0.90017116       0.45496554       1.36915427       0.23263228       1.21123457      -0.53451300
H       13.73056069       9.93179888      13.21204173      -0.08516265       0.15473430      -0.02630665       0.40781492       0.04064956       0.07168305
C       15.96681888       7.45136560      12.69231618       0.32454662       0.13255946      -0.69765402      -0.43555212      -0.29733488       0.74140996
H       15.94244116       9.16260911      13.95512607      -0.00938983       0.06974872       0.06824009       0.36885291       0.10800307       0.81983173
O       17.11849283       6.87527412      13.13624867       0.44979434       0.46178515       0.47309714       1.23850489       0.69685489       0.46408466
H       15.78985169       5.96096209      11.24243236       0.10022821       0.01154434       0.04611080      -0.24590924      -0.15185778      -0.09772111
H       17.57379268       7.45603119      13.78883415      -0.01868993      -0.13215447      -0.07488133      -0.50758696      -0.58437192      -0.39028069
C        7.73831736       5.05410721       3.57535622      -0.35081262       0.30743129      -0.63987304       0.16214782       0.49944046      -0.53854883
C        7.51275794       4.96443155       4.96437145       0.00441023      -0.03849515      -0.17419390       0.35447001       0.93810242      -0.10495758
C        6.89775840       4.39390879       2.68353580       0.96252880      -0.55077719      -0.78660293      -1.05012751      -2.85067368       0.27688196
H        8.54561073       5.66976269       3.11618912       0.22891762      -0.13389574      -0.14130122      -0.57195610      -0.62438834       0.87272573
C        8.46928480       5.58645753       5.96579717      -0.10129168       0.52036000       0.88722761      -0.41527182       0.56709415       0.97044760
C        6.39024344       4.28916290       5.44335521       0.47874510      -0.51695078      -0.59660081       0.98880517      -0.50435013      -0.54744101
H        9.43521820       5.08621638       6.00733315      -0.00641624      -0.14835802      -0.05352638      -0.02138009       0.06557480      -0.30216435
H        8.07444743       5.52591425       6.99682163       0.19270480      -0.08927218      -0.14954837      -0.00695451      -0.23655894      -0.60487455
H        8.63025758       6.67301247       5.86623783      -0.02626261       0.04586803       0.40864887       0.05788283      -0.46534801      -0.51260543
C        5.60803259       3.54378129       4.59783487       1.02124972       0.27782444       0.11049550      -0.99577487      -1.79340553      -1.36837208
H        6.25214514       4.17295620       6.49091132      -0.00565565      -0.00175718       0.22422068      -0.17939889       0.25733155       0.68477249
C        5.89852199       3.52176978       3.21291455       0.81109880      -0.03813896      -0.09713054      -0.40767297       1.51132965       0.99795055
H        4.84583238       2.79494146       4.97177227       0.29854456      -0.24555550       0.02584345       0.83386791       1.26841497      -0.35913700
O        5.20432385       2.71491381       2.34144554      -1.01194482      -0.07864063      -1.00781591      -1.14042771      -0.37001076      -0.25788063
H        7.06109874       4.10229107       1.63063987      -0.20011544       0.18565486       0.10867777       0.36818671       1.22428763       0.42652792
H        4.18290093       2.63413781       2.40239597       0.03884119       0.08362025      -0.29851005       1.75546765       0.87857974       0.56476003
C        8.16135900      21.91578172       8.22709971       0.29063530       0.57367238      -0.58917298      -0.31610566       0.97271293      -0.03027683
C        6.85084751      22.27178016       7.81943023       0.57338754      -0.52354434      -0.44369392       1.23229790      -0.50902343       0.97225130
C        8.69921622      22.36257260       9.44534651       0.91784469      -0.04735514      -0.21343771      -0.93851495       0.05859806      -0.76511693
H        8.77127199      21.36828606       7.49902423       0.14021708       0.04926802      -0.16058551      -0.20317177       0.17737508       0.52967656
C        6.42741915      21.64188113       6.53728946      -0.04583180       0.61923383      -0.12822379      -0.63316953      -1.10679483       0.57561409
C        6.05541518      23.12550098       8.62101101      -0.62456245      -0.39181891      -0.12317609       0.70308572      -1.09574115       0.40604490
H        5.57270520      22.15347940       6.20374584      -0.18451643      -0.18977712       0.10883694      -1.22995365       0.66635251      -0.78704369
H        6.07757340      20.55534654       6.65431689      -0.07469230      -0.21763797      -0.06928238       0.98974717       1.44535530      -0.18178925
H        7.21517718      21.79798843       5.81929609      -0.05668873       0.03156031       0.11934919       0.15878583      -0.53025687      -0.45405549
C        6.50654237      23.47180968       9.90708783      -0.35396058      -0.44072021       0.43441978       0.70284736      -0.76342559      -1.97872257
H        5.06071979      23.39130283       8.27677617      -0.02138099      -0.19566522      -0.03338645       0.22558263       0.09172960       0.10389043
C        7.82068200      23.03386900      10.27207075       0.41455982      -0.46179967       0.03466923      -2.54980636       1.53222084       1.05604351
H        5.86919462      24.11847557      10.50904585       0.06581068       0.03055206      -0.15494547       0.57877308      -0.41990483       0.27663258
O        8.09049341      23.40064885      11.57292327       0.48089319      -0.49726754      -0.95448992       3.24454045       0.03484278      -0.60607123
H        9.74256484      22.29395275       9.70938742      -0.21332509       0.18335025      -0.29696259      -0.14538676      -0.45394933       0.02667198
H        9.09703538      23.42843988      11.59387177      -0.09092448      -0.12237222       0.15621324      -1.89454603      -0.09979106       0.56386125
C       -0.57936765      -2.80953371      22.28957418      -1.15539304      -1.30408584      -0.48489787      -0.32586819      -0.15961888      -0.54231995
C        0.44349567      -2.26722153      21.51661994      -1.25949423       0.50177288      -1.35375866      -0.98137820      -0.29254630       0.27131903
C       -1.60032431      -1.98246924      22.75991990      -0.33225623      -0.01912604       0.11772368       0.78760326       0.58670056      -0.47430682
H       -0.63298651      -3.90665565      22.35862037       0.02434085      -0.05471586      -0.00345887      -0.08485888       0.62404823       0.41716602
C        1.46832203      -3.13114653      20.87187521      -1.28391199       0.62013121       0.26404676       1.29131067      -0.78827107      -1.54383707
C        0.39749678      -0.90285324      21.31866049       1.07717990       0.54585576       0.74705159       1.81767619      -0.29768795      -0.87850165
H        1.99364608      -2.65281680      19.99642839       0.09684322       0.05004628      -0.07660401      -0.67971486      -0.08734159       1.04474807
H        1.06697246      -4.07717630      20.40746580       0.25658650      -0.08010878       0.15057654       0.12598166       0.86240745       0.83354241
H        2.28040618      -3.40350542      21.56262491      -0.02526803       0.03739497       0.02824985      -0.31666559      -0.05172640      -0.10867702
C       -0.54737603      -0.04726819      21.76481748      -1.54733008      -0.37087544       0.10677473      -2.08296490       1.52344072       0.95906955
H        1.20328854      -0.49275695      20.74557077      -0.06240193       0.15133687       0.19851590       0.34471619       0.31348252      -0.30355874
C       -1.61756226      -0.59748874      22.49116033      -0.51434677       0.12183344       0.09929059      -0.57881695      -0.97693235       0.02105087
H       -0.46274545       1.04605255      21.56355195       0.13316181       0.18003257       0.09319215      -0.27123570      -1.12502837       0.18315664
O       -2.72099922       0.13342775      22.94179850       0.05467866      -0.29286746       1.86332194      -0.00786816      -1.22127938      -0.39751527
H       -2.38546658      -2.38825653      23.34868578      -0.11864469       0.07103605      -0.07844916      -0.61352897      -0.29681307       0.31074136
H       -3.46631587      -0.50708713      23.15820692      -0.11045784      -0.35915274      -0.04383855       1.29131866       0.88597488      -0.35344809
C       11.56461944      24.37331045      16.65469426       0.41813363      -0.30506467      -0.52191186      -1.84710813       0.21680108      -0.44198665
C       10.77509733      24.99591374      17.66428567       0.04261797       0.70413201      -0.72360708       0.77452946      -0.55505443       0.31956849
C       10.89631238      23.87102025      15.54788926      -0.44355750       1.36479590      -0.07987722      -0.44163054       0.79441714       0.48103386
H       12.63134142      24.35562541      16.65654514       0.36909002      -0.09568729       0.28697251       0.51444715      -0.18648082       0.37632793
C       11.43154701      25.43622164      18.99146905      -0.51290288      -0.13527700      -0.03987074      -0.26307067      -0.12598987      -2.24421358
C        9.42412181      25.18498371      17.43186618      -0.18600631      -0.28170286      -0.75372875       0.75088465      -1.09672499      -0.15847737
H       12.29676186      25.95081471      18.60653132       0.18996582       0.11712323      -0.16135062       0.58504230       0.37765765       0.64259309
H       11.74949952      24.61733632      19.62852275      -0.22351224      -0.07299463       0.09772289      -0.23948175      -0.02594810      -0.02002985
H       10.77540700      26.14272314      19.45878005      -0.08657505       0.14646325       0.27533377      -0.07295913       0.10033045       0.63460779
C        8.78085768      24.61568382      16.31373576       0.03025412      -0.39142697       0.10730861      -2.50664377       1.84284163       1.90692496
H        8.92297436      25.67612016      18.22755666       0.08970461      -0.08069308      -0.17404630      -0.87633508       0.31718874       0.26842377
C        9.50677699      23.99240008      15.39827662       0.86801018      -0.17099859       0.75841383       1.15510297      -1.19075084      -1.48349690
H        7.67864647      24.69829981      16.20385114      -0.08213589       0.10989157      -0.06261029       0.93740404       0.00752949       0.06460103