832
Lattice="20.476839108066326 0.0 0.0 0.0 20.476839108066326 0.0 0.0 0.0 20.476839108066326" Properties=species:S:1:pos:R:3:momenta:R:3:forces:R:3 mol_liquid.pdb=T energy=-535847.3125 free_energy=-535847.3125 stress="0.001740387175232172 -0.00011399479262763634 -0.0004902257351204753 -0.00011399479262763634 0.005213174037635326 0.0005646893987432122 -0.0004902257351204753 0.0005646893987432122 0.0030868910253047943" pbc="T T T"
C        4.45886035       6.12356076      -0.36253644      -0.40793660       0.50467436       0.45771401      -1.19951439       0.41164920      -1.91780019
C        3.26391545       6.82860772      -0.20523505       0.28860286      -0.13640233      -0.72714156       0.90512329       0.43783975       1.47485268
C        2.38571586       7.02232361      -1.26008698      -0.37381004       0.96358045      -0.78093055      -1.07559276      -0.55259907       0.22590432
C        2.53395979       6.32412455      -2.46384899      -0.20108618      -0.22352603      -0.26538953       0.68935019      -0.38954541      -0.74216956
C        3.77085489       5.64491299      -2.69963480      -0.06551668      -0.59053718      -0.55312612      -2.31733418       0.71368098       1.08978748
C        4.65340752       5.59461034      -1.63505864       0.80967691      -0.68147535       0.28252685       1.02874708      -1.39007342      -0.61473536
O        1.52340673       6.22195984      -3.42469873       0.80782929       0.31205330      -0.39085387       1.34813762       0.07680163       0.97692627
H        5.25184432       5.96333480       0.31682460       0.07677378       0.20696443      -0.25200507       0.20436507       0.05438391       1.10449708
H        3.00270012       7.24893062       0.79343590       0.08474772      -0.43917885      -0.02726075       0.18885931      -0.29099122      -0.99618560
H        1.45996248       7.53308997      -0.98715327      -0.00326355       0.06447575      -0.29672144       0.15977299      -0.11340742      -0.51998055
H        3.84667294       5.01077331      -3.56809135       0.20364470       0.14446129       0.13087926       0.25924075       0.16215931       0.00218951
H        5.50327707       4.92189271      -1.79473169       0.02504682       0.05336827      -0.10846714      -0.24324304       0.47148255       0.17945397
H        0.67348414       6.42643424      -2.99921743       0.36070340       0.01912097       0.11932842       0.04918983       0.29541692      -0.13452792
C       -6.15629847      18.79043796       1.51809161      -0.14491989      -0.79003131      -0.43307449      -1.43065476       0.50336444       0.23391719
C       -4.81529079      19.07763799       1.29127113       0.39089442       0.05468046       0.44652958      -0.04922137      -3.95730066       0.09596154
C       -3.89899576      17.97936847       1.27666625      -0.42998583       0.56243373      -0.04927957      -3.27370214       0.75622976       0.59437120
C       -4.50217011      16.69562820       1.56149390       0.28721422      -0.20388225      -0.20450898       2.60541058       2.86228275      -1.10760558
C       -5.82220441      16.45518915       1.65830141      -1.05679545       0.02374271      -0.64050255      -0.78386366      -0.97321469       0.86300534
C       -6.69580566      17.51520087       1.66702043      -0.30696263       0.73506136      -0.42344745       0.32295051       0.56765985       0.34540889
O       -3.63661106      15.69327957       1.72868036       1.11595906       0.73898601      -0.04407653      -1.16211188      -2.06305599       0.03352214
H       -6.85685325      19.61502027       1.62601075       0.21301932       0.12982250       0.15292960       0.16447282       0.00221061      -0.27216157
H       -4.61367698      20.06297557       1.08308064      -0.20333556       0.29808707       0.18284300       1.12028289       1.99708128      -0.26479423
H       -2.84697643      18.14068716       1.18160540      -0.06876531      -0.03271532       0.01352586       0.36192691      -0.17448434      -0.08815397
H       -6.05080727      15.42040433       1.89632169       0.34576316       0.19333458       0.08190266      -0.52503419       0.25007692      -0.22019325
H       -7.74918985      17.35856731       1.86786933       0.08793261      -0.12486469      -0.06129157       0.09403398       0.12517014      -0.21392414
H       -2.80123622      16.09072417       1.66187930      -0.00928721       0.03708983       0.10603959       2.34047008       0.18609348       0.23718397
C       -2.72015360      -1.63827571       6.51834550       0.62443745      -0.16256174      -0.04529716      -1.03271580      -2.16118264      -1.60739911
C       -3.64001472      -2.52379951       5.90550365      -0.25100506      -0.97147408      -0.34959839       0.26970035       0.12173103      -0.85347641
C       -3.25256793      -3.17430902       4.70282343      -0.49525717       0.34198245       0.52685878       1.77951121       0.60524952       0.41338593
C       -1.93890460      -2.99776938       4.20193496      -0.63941335      -0.91234698      -0.89985761       0.09322887       0.27283901      -0.07342575
C       -0.98326178      -2.25710727       4.98489059      -1.23578088      -0.00633180      -0.25102764      -0.66420102      -2.18083096      -3.32375979
C       -1.41737730      -1.59191741       6.06278327      -0.47670736       0.55220886      -0.29786025      -0.18017246       0.47815844       1.02531397
O       -1.56438544      -3.53120233       2.92138256      -0.58780683       0.46008866       1.12386069      -0.59412861       0.68858266       2.60541344
H       -2.97561322      -1.09737295       7.35844044       0.22944311       0.03144703       0.02815201      -0.60145962       0.79141903       1.58492517
H       -4.67875749      -2.73533621       6.25633387      -0.04565904       0.02767039       0.00181217       1.14146459       0.47025433      -0.04136575
H       -3.83407129      -3.92290022       4.22312797       0.25669570       0.05540998      -0.07081717      -0.78490138      -0.11501968      -0.29531220
H        0.04677810      -2.29183097       4.63287331       0.11496813      -0.12582605      -0.08295539      -0.18237770       0.41238403       0.28650123
H       -0.69075299      -1.04849169       6.59989703       0.07138454       0.05144650       0.03328202       0.52804452       0.71426916       0.61901331
H       -0.60641906      -3.41260213       2.90578468      -0.15010540      -0.01816127       0.08055474       0.41392249      -0.14632526      -0.38657990
C       24.45340047       2.28347096      10.69578555      -0.01573381      -1.12499028      -0.16548768      -1.39038014       2.24875832      -2.04991484
C       24.76414050       2.79502496       9.44536064       0.24357688      -0.34707433      -0.80929370       1.99326921      -0.76803184      -0.62372947
C       24.09166427       3.78055044       8.76211169       0.21201461      -0.57584799       0.16094000      -0.72660470      -1.14836836       1.00413227
C       22.95973225       4.29580195       9.35522639      -0.59471571       0.86770231       0.38232168       0.49054760      -1.59499371       0.48770022
C       22.55752356       3.76178519      10.57813802      -0.69406645       0.23748194      -0.36225283       0.80148506       0.25614679      -0.47140977
C       23.26727387       2.78982021      11.22182909      -0.38083011      -1.04084402       0.28564881       1.38898253      -1.28211176       1.38996577
O       22.19437922       5.11834157       8.66513578      -1.17940749       0.32489770       0.16539224      -0.59295148       2.02876234      -0.83281767
H       25.13050950       1.60698960      11.07946466      -0.18744464      -0.02329785       0.50179570       0.77976805      -1.46025681       1.25317490
H       25.63824477       2.39269762       8.92617152       0.01479707      -0.03153632       0.05113282      -0.10109230       0.04199747       0.22775544
H       24.21244092       3.84384536       7.71924944       0.23472521      -0.06393119      -0.06373825       0.50460219       0.74342239      -1.00348878
H       21.74059115       4.13761904      11.07458041      -0.11519995      -0.17345324       0.12805644      -1.86436057       0.81876099       0.70182931
H       23.00146368       2.39896921      12.20849467       0.14655119       0.06280570      -0.26699473      -0.50588238       0.48339349      -0.36379728
H       22.78183125       5.64309994       8.07365865       0.17895213       0.20521836       0.04291467      -0.66124165      -0.26056671       0.14626390
C       18.12786651      14.93750002      -2.06334122      -0.29410792      -0.73224468      -0.57326040       2.36627078      -1.36242139       1.28277552
C       18.55122746      16.04160029      -1.36373426       0.06626829      -0.31250317      -0.19471114       1.39315462      -0.50251514       2.49401903
C       19.51743646      15.99904451      -0.31089981      -0.17703731       0.07765406       0.17638521       0.16344158      -1.46317399      -1.78831577
C       20.24974801      14.78383314      -0.14276347      -1.04634588      -0.32639949       0.00803707      -1.39633644       1.51773012       0.04724444
C       19.97733963      13.68769354      -0.92504664       0.06953664      -0.16945520       0.29602283      -2.06325865      -0.60642999      -1.97931719
C       18.87910876      13.76160957      -1.87187150       0.64433003      -0.89487485      -0.21944722       1.25544989       1.40645885       1.57340002
O       21.19099587      14.66017529       0.82229739       0.43377108       0.68461671       0.07453496       0.91776377      -0.53809381       0.39353469
H       17.25628973      14.99633809      -2.63758811       0.29393045      -0.25088896      -0.11443883      -0.83818591      -0.07599097      -1.10968494
H       18.04532454      16.93002919      -1.50489257      -0.40804142       0.08729846       0.18951379      -0.92680931       1.81160998      -0.23714507
H       19.81531933      16.86334173       0.26879471      -0.03358411      -0.07026602      -0.24844031      -0.21424216       0.06341931      -0.13958786
H       20.49384558      12.72264756      -0.84367793       0.08909891       0.03677278       0.15082687      -0.13441290       0.83145541       0.20080505
H       18.64295975      12.90308695      -2.42388715      -0.01885423      -0.29564931       0.12226815      -0.20549992      -1.11777854      -0.60732114
H       21.29330767      15.42027622       1.40828246       0.16131740       0.16678079      -0.21025414      -0.19471729       0.43456626      -0.00949749
C        2.90223411       2.50564566      19.41702142      -0.78274765      -0.45363061      -0.57626065      -0.21561438       0.06264254       0.37320834
C        3.29066261       2.80022776      20.74349608      -1.27447556      -0.97289599      -1.19843555      -0.87880671      -0.20669727      -0.74129987
C        4.48128038       2.28937273      21.21415251      -0.06000326      -0.07783001      -0.49766737      -0.58439529       1.63275778       1.24429214
C        5.36868565       1.65818937      20.40994567       0.00495860       0.12500144      -0.53264425       1.96201444      -1.49878144      -0.25288042
C        4.98547660       1.30498000      19.15593773       0.68097709      -0.87845921       0.11004733      -0.63599253      -0.78902841      -2.58225870
C        3.72819183       1.71032675      18.65230608       0.70809447      -0.24994544       0.73113930       0.38817644      -0.62385017      -0.75158846
O        6.62791199       1.30405498      20.88582483      -0.39316175       0.09006593      -0.83462652      -0.97946805       1.15099120       1.03526473
H        1.97462925       2.82574871      18.94366504      -0.00891728       0.26644165       0.07037857       0.12111315       0.13776727       0.56036299
H        2.64420403       3.37597699      21.41915029      -0.16915447      -0.35649618       0.18932881       0.59025121      -0.31278491      -0.56456345
H        4.75164097       2.51688492      22.21932243       0.00656818      -0.06592402      -0.06865085       0.16971686      -0.16923994       0.40216979
H        5.63322827       0.66130888      18.52855762      -0.04079606      -0.17388449       0.32077769      -0.42015731       0.64948285       0.49925444
H        3.36632632       1.37713707      17.63741448      -0.05585576      -0.14246907      -0.16899888       0.74059749       0.46249741       1.24041963
H        7.06290674       0.60419847      20.40193780       0.24174532       0.19073253       0.07698576       0.07289454      -0.50690281      -0.84861368
C       13.21908278      14.96660212       6.98731361       0.64055802      -0.00791550      -0.28209058      -2.06614280       2.87856054       0.33296335
C       13.35859911      15.41059637       5.68446064      -0.67499638      -0.50232648      -0.41745303       1.60850978      -2.42102599      -0.49956304
C       13.02827935      16.65692318       5.26570060      -0.25477966       0.66934109      -0.45721542      -0.41455403       2.07999182      -1.30619264
C       12.48721854      17.55006008       6.18886266      -0.50032176      -0.47257892       0.29348427      -1.14694428       1.64263570      -0.49541485
C       12.11565235      17.07700834       7.44300133      -1.14019307       0.47196123      -0.46926538       0.29872912       0.64331263       0.29963523
C       12.47398732      15.82204496       7.85411065      -0.66339412      -0.40016886      -0.31824834       1.90129650      -1.50646579      -0.35892063
O       12.21841816      18.88060563       5.77650995       0.06960631      -0.07998147       0.11019347       0.66888940      -1.86490464      -0.15248354
H       13.63266993      14.08344203       7.32244108      -0.05442796       0.04351884      -0.18548330       0.55861825      -1.79725158       0.53776759
H       13.86115405      14.70498091       4.99461438      -0.20532001       0.23718562      -0.04326342      -0.46779120       0.67468858       0.25265241
H       13.17792943      17.00484034       4.21075473       0.23608500       0.40511612      -0.12407666       0.00026210      -0.46963823       1.23575425
H       11.70960673      17.68730155       8.22305006       0.06549926       0.21456859       0.18996551      -0.35879353       0.60867572      -0.18576720
H       12.35813473      15.56277573       8.89809820       0.43148855      -0.02999970       0.13477012      -0.29451758      -0.15602869      -0.06537265
H       11.95789358      19.46138134       6.50746585      -0.15991150       0.12052987      -0.12818354      -0.02655669      -0.47430563       0.37550020
C        1.83331402      19.09969801       8.52277892      -0.71278020      -0.66728382      -0.24103274      -0.82170516       0.15052786      -0.08309743
C        0.96801687      18.05841437       8.79520699       0.57705258      -0.35965852       0.32061364       0.10275164      -1.11475825       0.32624909
C        0.42261066      17.85815847      10.07669685       0.18862522       0.96579366      -0.52395963       0.05135605      -0.31428823      -1.47720659
C        0.65938232      18.82590705      10.99827347      -0.59559269       0.01733399      -0.50587986       0.51081091       1.41873145       1.04581773
C        1.40995434      19.96759706      10.71337953       0.24613871      -0.40127393       0.62366116       0.04039130      -0.44090241      -0.59571087
C        1.99894068      20.09195671       9.47193601      -0.73127796       0.14767304      -0.60851362       0.25170752       0.09209989       0.37159750
O        0.26722631      18.75771400      12.32584165       0.91771450      -0.05831130      -0.17935086      -1.05812037      -0.20152466       0.18983704
H        2.29433708      19.22143878       7.56644362      -0.17608895       0.01101177       0.09574596       0.12638828      -0.16668694      -0.42531252
H        0.77912930      17.26281331       8.08054989       0.03420401       0.25200552      -0.14876298       0.19768964       0.36203122      -0.09154766
H       -0.13741422      16.95571869      10.27239548       0.14719960      -0.04442009       0.14023942      -0.00473462       0.25498027       0.19265181
H        1.56598314      20.68764680      11.49346443      -0.00432633      -0.00694964       0.05842247       0.02664401       0.20000088       0.02241013
H        2.62074743      20.94200685       9.25277734      -0.09302230      -0.08746422       0.18791712       0.04867061       0.15534675       0.08730654
H       -0.70083417      18.66506980      12.35845523      -0.02869518       0.06682666      -0.25229800       0.55451083      -0.36621723       0.20168196
C       24.78589397      10.09840347      19.72849862       0.29902401       0.08739983      -0.06863590      -1.02630019       3.20961046      -1.05405343
C       23.81054715      10.50905512      20.66158875      -0.26307559       0.25315543       0.33388991       1.71479297      -0.70705366      -0.46423516
C       23.33881660      11.81077656      20.72127062      -0.45342696       0.31124412       0.45419513       0.18061613      -0.45715284      -0.69256675
C       23.73519252      12.69132250      19.72140865      -0.85356830      -0.27802775      -0.53512774      -0.52669281       1.85493255       1.38306844
C       24.70718657      12.36498715      18.78935178       0.00952082       0.28234923       0.05214379      -0.49493033       1.88443029       0.39248028
C       25.21469812      11.11397555      18.78924960      -1.01551214      -0.36374522       0.50059450      -1.11240017      -2.09752393       0.85238957
O       23.29740895      14.01488050      19.71093892      -1.01234955      -0.14818353      -0.77775684      -0.44324133      -0.46207070       0.21601614
H       25.06253964       9.09105390      19.64377186      -0.07906440      -0.13885995      -0.01831747       0.55783361      -1.02435076      -0.03671533
H       23.53505660       9.79819857      21.41976030       0.25721859      -0.18646494       0.22869682      -0.34639466      -0.13175705       0.12237523
H       22.69174626      12.05281973      21.53942112       0.15418352       0.17626233       0.27406986      -0.28728461       0.60250473      -0.02950574
H       25.08347269      13.16154247      18.11568070       0.16545625      -0.18503799      -0.13138003      -0.46728885      -0.77413702       0.30100092
H       25.73724805      10.99764775      17.88996535       0.11960828       0.05290058       0.16843632       1.43531227      -1.31549513      -0.64028102
H       22.59925462      14.23114668      20.39940259       0.08649035      -0.01716310      -0.15514595       0.79112750      -0.54999876      -0.57676673
C       14.04148928      11.90016461       9.36986061      -0.54588402       1.44936988       0.33441972      -1.72327626       0.73534322       0.44076574
C       15.19713304      12.62511915       9.59264095       0.04579131       1.10111176      -0.01034566       1.22842240      -1.67021322      -1.38908720
C       16.34759138      12.14157420       8.94055907       0.05363412      -0.28727819      -0.05413073      -1.16996014      -0.47140864       0.30159590
C       16.35146838      10.96536034       8.16367381      -0.12775839       0.20641207      -0.10695685       1.59037471       1.49548721      -0.46339661
C       15.17960433      10.34096380       7.87936227       0.07582524       0.66321307      -0.02231822      -1.89658701      -0.31152582       0.58700454
C       13.98270484      10.85242149       8.46336330       0.29225053      -0.38623915       0.38375716       1.25648069      -1.48017693       0.28476349
O       17.57452914      10.54739587       7.53779731      -1.19709379      -0.30234676      -0.12207499      -1.85033703      -0.21746707       0.58113027
H       13.15465361      12.23349505       9.93690033       0.02519978       0.11269133       0.24856529       0.27485937      -0.43224597      -0.59305829
H       15.22374305      13.48349249      10.23267032       0.02164286      -0.08023593      -0.10553721       0.15537414      -0.07175134       0.05753871
H       17.24139363      12.66700965       9.03093777      -0.23243388       0.07205869       0.17415352       1.35164762       0.71323085       0.24762809
H       15.07588111       9.40349390       7.34582371       0.30739399       0.08537317      -0.04745841       0.39288804       0.36496097      -0.19688757
H       13.12138979      10.18539146       8.34043750       0.01096197      -0.06146162       0.12601592       0.22554415       0.88413060       0.10067179
H       18.28959071      11.11418759       7.82050607       0.09092669       0.18760890       0.08683355       0.47403011       0.81124175       0.22038507
C        8.09500855       8.14636412       2.18025260      -0.32916060      -0.00100461       0.40868691      -0.86129695      -0.53312892       0.55088925
C        8.00730300       8.65418745       3.46189616      -0.73629778       0.29823188      -0.20583160       1.24885321      -1.48342967       0.93092275
C        8.26093114       7.82386892       4.55878690       0.08414987      -0.21918690      -0.27438531      -0.56793177      -0.71779680      -0.00259300
C        8.41612363       6.43265852       4.36053187      -0.70901217       0.56189818       0.62202886       0.14645302       2.65006137      -1.31475091
C        8.39282289       5.91131910       3.09112054      -0.05057650       0.81900790       1.14368073      -0.74956703      -0.40975478      -0.18318838
C        8.15999945       6.77465846       2.02756971      -0.18242415       0.66751822       1.10140215       0.83179486      -0.41744125       0.13941166
O        8.69886836       5.71997119       5.41519142      -0.70920705       0.49218370       0.25279871       0.25275609      -2.58490872       1.66863441
H        8.01653175       8.83076024       1.37479098      -0.03830434       0.04727844       0.08628987      -0.11939801       0.19515710      -0.80333561
H        7.89106195       9.68167275       3.58248565       0.17393768       0.13862258      -0.05810003      -0.24004686       1.60007799       0.37274283
H        8.28890579       8.10575377       5.61686119      -0.02514957      -0.23523235      -0.24980232      -0.14426766       0.38194540      -0.82551920
H        8.47114464       4.82194360       2.97875441       0.11749120      -0.11273558      -0.04406219       0.08012089       0.56303573      -0.21231310
H        8.17633835       6.30417038       1.08334363      -0.07979396      -0.06035212       0.14547179      -0.16795479       0.03155247      -1.04340589
H        8.73630187       4.76385653       5.16486493       0.16617903      -0.10102776      -0.21839194       0.05420042       0.92201912       0.60719609
C        3.08176065      15.26036323       7.77343354      -0.04728836       0.23338214      -0.11660414      -0.02287406      -0.64028150      -1.25805330
C        2.57149111      14.01443986       7.37327337       0.51350630       0.53087599       0.12095684      -0.11713868       0.59302098       1.08157933
C        2.42218467      13.73307668       6.02872169      -0.78562992      -0.40182176      -0.80411868       0.06864773       1.03943825       0.20499563
C        2.64087816      14.71208499       5.05857807       0.07685756       0.06928567      -0.28574283       0.09140448      -0.30896109       2.08487344
C        3.20789513      15.91448727       5.48082779      -0.00605749      -0.98806177      -0.35421049      -0.69432992      -0.60127825      -1.30403686
C        3.41477367      16.16986305       6.79831729      -0.58534804       0.24774685       0.41618956       0.81293857       1.15869141       0.56531006
O        2.21799702      14.56244691       3.80141297      -0.02214442       0.76915630       0.22664398      -0.27487618      -0.22230852      -2.02824879
H        3.36459737      15.56133335       8.73406013       0.03933827      -0.04668091       0.09911452      -0.26016107      -0.20528530       1.61668432
H        2.16012233      13.34914433       8.14562939       0.12206097       0.17187906      -0.23168364       0.72015214       0.01743028      -0.59925866
H        2.09892622      12.79565794       5.70677245       0.03823804       0.00818515       0.06822569      -0.63753861      -1.29092395      -0.20327976
H        3.44822124      16.64639170       4.76065071       0.14372268      -0.05566482      -0.11017595       0.20105141       0.72332579      -0.75232095
H        3.86708907      17.14705996       7.05768194       0.23973832      -0.07072773       0.10371425      -0.32600427      -0.77506596      -0.01083519
H        1.66437545      13.75071066       3.51734108       0.23584823       0.08051386      -0.04413899       0.73988330       0.74587119       1.11917734
C        7.56357530       2.45375997       5.08592801       0.07579372      -0.38245654       1.12781913       0.56709695      -1.08389723       0.15733500
C        7.24151778       3.06656668       6.31570504       0.70286836      -1.39568598       0.34360356      -1.37300062      -0.25746948      -2.20177364
C        6.05559265       3.82024312       6.38194615      -0.71716141      -0.19117402       0.70477518       1.72040498      -0.67438567      -0.90772617
C        5.35970108       3.98745130       5.17783200      -0.07223355      -0.64033759      -0.56483866      -0.10397549       0.33535814      -0.08816107
C        5.77470453       3.48657917       3.93347950      -0.01937698       0.79727150      -0.28008076      -0.00655955      -0.20035902      -0.71010280
C        6.87156095       2.62137609       3.88948412      -0.10536417      -0.87101108      -0.07070386       0.05266943       0.54358077       0.26793480
O        4.24326810       4.76713355       5.28115822       0.71410832       1.51065107      -0.66153527      -1.24694359       0.32699069      -1.13331842
H        8.34023827       1.69289142       5.05423940       0.13980935       0.31714833       0.14266094       0.19393615       0.47026014       0.25041333
H        7.90620550       2.87417162       7.10782445       0.06693356       0.08696372       0.04113071       0.34519088       0.01072943       1.12062418
H        5.79125522       4.32445178       7.29439630      -0.08827433      -0.16299424      -0.12115623      -0.32338822       0.06606194      -0.02206282
H        5.30230819       3.75639889       2.95736762       0.14997896       0.04853455       0.08143837       0.06646854      -0.00655658       1.43168843
H        7.24331289       2.13743828       2.95150162       0.05758524      -0.13864867      -0.07665769      -0.58267796       0.56455910       1.03157401
H        3.59711259       4.64681626       4.52627133      -0.29683960       0.01324608       0.25129458       0.72746694      -0.15737949       0.93425763
C       19.05960414       9.95433104       1.30246058      -0.68264766       0.30213160      -0.26367439       2.42254257       1.31289566      -0.75458801
C       17.97583678       9.55870478       0.60623003       0.24787499       0.74416095      -0.08697373      -1.53428531      -1.21920252      -2.17107463
C       18.02099174       9.46214032      -0.81996504      -0.39708130       0.00421330       0.16772834      -0.37230921       0.03693499       1.00483799
C       19.16385434       9.89055293      -1.44105065      -0.01079556       0.10156964      -0.21219820      -0.73079866      -0.22596943      -0.46944207
C       20.26351905      10.31260415      -0.75652196      -1.17972871      -0.92572042       1.24861761       1.66419113       0.57663929       0.35404044
C       20.25575839      10.37864915       0.60704463       0.29584333       0.50374959      -0.58325197      -1.02590609      -0.49974710       1.51699615
O       19.25212312       9.87136455      -2.80064874       0.36121591       1.30698336       0.44441578       0.26203877       0.33015823      -1.52463555
H       19.07261422      10.00544501       2.35322467      -0.01632430       0.03765021       0.02197177      -0.15088555      -0.00227893       1.10316348
H       17.02317516       9.22829651       1.03753604      -0.24788882       0.04672927      -0.22675027       0.61634445       0.29846919       0.25801349
H       17.16055190       9.09193754      -1.38903625       0.07471174      -0.00847357       0.12687064       0.48173591       0.30513859       0.28285176
H       21.13650945      10.58435759      -1.36032381       0.37892184       0.32216388       0.33585600      -0.19315760      -0.04292907       0.47966218
H       21.13071910      10.73556130       1.17324518       0.14636200       0.06845875       0.07705044      -0.74062163      -0.35937637      -0.36932117
H       19.98000046      10.45122873      -3.12654889      -0.04849421      -0.18225451      -0.05734028      -0.62308216      -0.63449603       0.39749646
C       -0.12371963       6.73395409      21.76103452       0.10623392       0.40136564       0.16859745      -0.03633350       0.60373306      -0.77728546
C        0.52107504       7.21616956      22.88162552      -0.85111972      -0.01480546      -0.31436405      -0.32058504      -0.04865663       0.93850410
C        1.19821634       6.31914214      23.67870849       0.05231273       0.23302933       0.52747626       0.77384377       2.43056250       1.09320641
C        1.32912173       5.04700414      23.27588590      -0.68405952       0.37568630      -0.14009587      -0.36238003      -2.97858429       1.18684995
C        0.64020186       4.49677502      22.20718298       0.05263158      -0.44755069      -1.21100976      -0.35571933       2.16970921      -1.17737603
C       -0.05494237       5.38008299      21.38311225       0.55203608      -0.70514913      -0.16986576       0.54193431       1.33761144       0.72598547
O        2.00970557       4.20883319      24.13931359       0.51879447      -0.61888217      -0.37901630       0.33477682      -0.35750082      -0.22328486