1152
Lattice="22.8761534102751 0.0 0.0 0.0 22.8761534102751 0.0 0.0 0.0 22.8761534102751" Properties=species:S:1:pos:R:3:momenta:R:3:forces:R:3 mol_liquid.pdb=T energy=-541755.1875 free_energy=-541755.1875 stress="0.0032023361418396235 0.00036484168958850205 0.0001966610725503415 0.00036484168958850205 0.003562198020517826 -0.0011689472012221813 0.0001966610725503415 -0.0011689472012221813 -0.0014012051979079843" pbc="T T T"
C       11.05131010      35.02146106     -22.68295155       0.36067419       0.40634820      -0.99151622      -1.68062472      -1.45845163      -0.40443128
C       11.34724112      34.82256117     -24.14873948      -0.94483364       0.20227452      -0.36760828       0.70936096       0.01466818      -0.15593323
C       11.97032649      35.46930216     -21.76626362       0.11691209       0.57585028      -0.06317548       0.29100060       0.08798561       1.31161427
C        9.75974700      34.62031882     -22.25413598      -0.14668708      -0.12090734       0.28792841       1.81199837       0.90501535       3.01076436
H       11.74333107      35.74706162     -24.53577714       0.09395387      -0.03703713       0.08961754      -0.16535687       0.61340094      -0.37943894
H       10.40813427      34.57700038     -24.68410812      -0.07192289      -0.11024220      -0.15271735       0.90695810      -0.03365587       0.19920459
H       12.21340145      34.13423250     -24.38008991       0.05032441      -0.10361007       0.09686857      -1.40265560       0.22368199       0.41444924
C       13.38015304      35.82390159     -22.15806777      -1.14537267      -0.17825983      -0.83002489      -0.81015617       0.09896000       0.34111953
C       11.59466526      35.57393212     -20.40692946       0.67706703       0.02635323       0.02510330       0.06003109      -0.61893797      -1.23306787
H       13.84394733      36.23125687     -21.27220011      -0.21214964      -0.01825685      -0.12688391       0.50923169      -0.16826604       0.14521153
H       13.33191161      36.66489658     -22.83900686       0.24031628      -0.15356513       0.17814897       0.34911430      -0.26371044      -0.56890756
H       13.89731649      34.93366544     -22.53433867       0.21319926      -0.27791209      -0.00953271       0.12834515       0.53320676      -0.08201296
C       10.33960305      35.14850210     -19.98136879       0.17521901       0.02362466      -0.06558425      -0.38787115       1.13742089       0.45362216
H       12.37156402      35.95467047     -19.76313731      -0.07380198      -0.05315562      -0.05150647      -0.30680421       0.09718348       0.45369148
C        9.38775572      34.67415120     -20.87790425      -0.07122515      -0.05865333       0.65702618       0.85479856       0.12445641      -1.69034052
H        9.99494927      35.41797826     -18.98013777      -0.16575893      -0.08645316      -0.05620661       0.39588892      -0.54869020      -0.06199400
H        8.39466617      34.39066407     -20.53923041      -0.10462765      -0.23520531      -0.01381730       0.22300860       0.03818480      -0.15033470
H        9.11630336      34.24693745     -22.95885905       0.19078569      -0.02540432      -0.17945324      -1.60036421      -0.78952229      -1.54099870
C        4.05900179      23.17504289      14.37915696      -0.02460347       0.17895819      -0.80824775       1.40043211      -0.14429352       0.67371190
C        5.45887142      22.79726430      14.69731098      -0.50406921      -0.26916340       0.01007038      -0.03837411      -1.10150361       1.36621356
C        3.01586192      22.81661451      15.20712207      -0.30174340      -0.27009242      -0.38229479      -2.90843892       0.30956233      -0.71802688
C        3.83972435      23.85086601      13.23387702      -0.21940745      -0.91156719      -0.42565788       0.00267401       0.91967440      -2.48540235
H        6.23255265      23.10171377      14.00493472      -0.09185004       0.01817765      -0.23524708      -0.24468435       0.59172237      -0.11944003
H        5.46478419      21.69204114      14.64105523       0.10892140       0.08663618      -0.02336517       0.32727471       0.37018278       0.47500402
H        5.67620565      23.12955471      15.73539954       0.09248941       0.12256411      -0.10612496       0.32395229      -0.47098833      -0.70867896
C        3.11230219      22.03354568      16.43923369      -0.40499585       1.25211084       1.04683852       1.75066006      -1.60402608       0.40910304
C        1.72194735      23.11396171      14.76470470      -0.34876605       0.60698224      -0.33176239      -1.13212252       0.50317365       1.02943408
H        2.20297215      21.57306511      16.85742633       0.13603996       0.03570672      -0.00556977       0.19534084       1.04751003      -0.28089425
H        3.71535879      22.59678960      17.16884190       0.06379153      -0.02514062       0.29111678      -0.30871662      -0.64758307       0.08742727
H        3.67094928      21.12143962      16.10595184       0.24873456      -0.22459339      -0.21938055       0.02059075       0.57736659       0.87412047
C        1.47290962      23.74687555      13.55072607      -0.20404896      -0.24278076      -0.77030526       0.94472867      -0.73566073       0.46753868
H        0.84528366      22.98327667      15.47829020       0.15201062      -0.08693648      -0.07918929       1.36818993      -0.28872609      -1.26171863
C        2.54789899      24.06842791      12.75271888      -2.08886220      -0.16131598       0.53629724       0.68593323       1.28503704      -0.59648538
H        0.47565318      23.91060194      13.26829830       0.23953756       0.06057683       0.06018512      -1.11245811       0.35530537      -0.42001054
H        2.47025407      24.62868310      11.80628419      -0.12754062      -0.00342815       0.08200938      -0.32756090      -0.46860293       0.53551739
H        4.71800513      24.18526696      12.62578329      -0.02434498       0.12637684       0.17484944      -1.03025913      -0.41009378       0.66042751
C       -4.94886521      17.06248762      24.46949877       0.76650572      -0.25232890       0.49771560      -0.73017162       1.31574762      -0.39575055
C       -4.35636618      15.93748469      25.25403029      -0.01533796       0.41748998       0.52582435      -0.40504402       0.53540033       1.81694841
C       -5.82287453      16.80808839      23.35942387       0.07986872       0.24856552       0.39202889       0.67514199       0.03985557       1.54970217
C       -4.53296896      18.36967122      24.71866072       0.80550547       0.51454690      -0.27628107       1.24157691       0.36355937      -0.02386602
H       -3.62691991      15.47352235      24.65275559       0.16901075       0.28759634      -0.04586672       1.15673637      -0.69220454      -0.57446408
H       -5.06374804      15.18178627      25.51816441       0.51292027      -0.21867055      -0.25547367      -0.68682230      -0.48184192      -0.14046599
H       -3.92692069      16.17991584      26.26769381       0.02091822       0.06946867       0.21604081      -0.13746050       0.36891112      -1.32069445
C       -6.13142646      15.35363955      23.09496466       0.91925916      -0.26338209       0.43138878       1.32526946      -0.42323542      -1.27163732
C       -6.22016719      17.87610672      22.54107532       0.14525597       0.46136959      -0.10879786       1.12384427       0.35410231      -0.17773984
H       -6.73221630      15.40921362      22.18397094       0.05626654       0.00784769       0.09370014       0.20495924      -0.87615657      -0.09817906
H       -6.66582738      14.76040821      23.83495720       0.16294451      -0.17488850       0.12419269      -0.19805123       0.59039104       0.26920265
H       -5.13257747      14.74875989      22.96266398       0.23549185       0.21023362      -0.15521817      -1.87000179       1.21594930      -0.23600174
C       -5.68778647      19.18772978      22.76783402       0.05716306      -0.48622040      -0.75065564      -0.00270258      -2.90572810       0.71127886
H       -6.69846172      17.69874562      21.55658120      -0.10061675      -0.12566653       0.10121562      -0.08117154      -0.04566232       0.99598360
C       -4.83071041      19.42393946      23.82804828      -0.43529140       0.36845119      -0.01865820      -0.52185345      -0.50328028      -0.21604016
H       -5.83526014      19.89240982      22.01671959      -0.19255986       0.04390278      -0.21491344      -0.32153881       1.26450551      -0.90867138
H       -4.38771920      20.41036832      23.83949347      -0.32780047      -0.00994286       0.07482954       0.18691419      -0.13407530       0.61350471
H       -3.76204259      18.52608392      25.51357063       0.05430054      -0.11555513      -0.13810888      -0.91292965      -0.00758428      -0.69618505
C       24.46239609      -7.85502936      26.54737131       0.87394863       0.28024347      -0.54950391      -0.35423782       0.44632050      -0.94214642
C       24.76581209      -7.36940626      25.12861811      -1.17486116      -0.46659680       0.39072005       0.43584013      -0.05886774       0.31313628
C       23.17267879      -8.28911497      26.88796232       0.75361489       0.31275865      -0.88112349       1.83109760       0.22906685       0.29627708
C       25.46520348      -7.79256726      27.50812043      -0.43321250      -0.60820413      -0.50175147       0.64887506       0.79277539       0.84787542
H       24.37596345      -8.01075948      24.32703415      -0.18588814       0.09905492       0.05678094       0.59644121      -0.15953815       0.35988101
H       25.84854444      -7.27570337      25.13911419       0.26662660       0.01105633      -0.33827969      -0.12496033      -0.08225808      -0.78853756
H       24.37806823      -6.37494385      24.84395355       0.00678399       0.19898523       0.14323278      -0.00299700      -0.28335753       0.70950818
C       22.20311712      -8.53353388      25.79750243      -0.12867715      -0.73238371      -0.01645715      -1.09841573      -0.65969265      -0.62362117
C       22.95182886      -8.54965390      28.22398704      -0.10785176      -0.55683176      -0.78974945      -0.89676201      -0.18350314      -0.05895182
H       22.13592358      -9.62009976      25.55518438       0.12531660       0.18397101      -0.21511666       0.25873247       0.65437776       0.10110179
H       22.52342334      -8.01190507      24.89544810      -0.13491987       0.15265050      -0.33006379      -0.36898446      -0.17300808       0.16361120
H       21.16106504      -8.25854883      26.00870390      -0.14347470      -0.14075035       0.13611396       0.44325370       0.22484155       0.16304976
C       23.91939608      -8.40697727      29.22796090       0.37374757       0.61932830       1.34760046       0.86923897       1.26352537      -4.20743370
H       21.90898331      -8.82615922      28.34073905       0.01944117      -0.25997054       0.05142698       0.20743331      -0.23423953       1.14108169
C       25.20752321      -7.97441391      28.87948834      -0.21933126      -0.69335889      -0.04992228      -0.67023820      -0.57324845      -0.21616560
H       23.73130885      -8.56210530      30.19087409       0.03406007      -0.00223748      -0.05211485      -1.09690404      -0.73421848       3.78144741
H       25.94847681      -7.86532031      29.70394455      -0.26208423       0.11359999       0.02986109      -0.46430790      -0.01656089      -1.15395105
H       26.47727260      -7.49527633      27.21016337       0.13000120       0.20108310       0.31397833      -0.49853569      -0.07025883       0.00786076
C       32.44395511      20.99370543      -7.64941029      -0.38617904      -0.66728217       0.90962736       0.75902194      -1.52797413      -2.18803096
C       31.66832376      22.21297845      -7.30242792       0.24546329      -0.12553998      -0.36291325      -0.14267634       0.59896946      -0.66895473
C       33.54558553      20.50461782      -6.94805120       1.01574989       0.59897831       0.07855967       0.80029321       0.12301928      -0.13859046
C       32.20099413      20.35563132      -8.91245520       0.06078794      -0.09884790      -0.20280690      -0.62999660       0.64333749       0.81523514
H       30.75131338      22.22177374      -7.91017932      -0.05359801       0.05579893       0.15182186       0.48227483       0.21240479       0.36500064
H       32.24734601      23.13956849      -7.50153203       0.02429454      -0.03593684       0.00611517      -0.27444988      -0.51237130      -0.02846666
H       31.37957338      22.26805958      -6.27451201       0.16248832      -0.04991259       0.15874499      -0.15327045      -0.10416629       0.65919280
C       34.03066241      21.25482340      -5.73574176      -0.22158109       0.85451124      -0.09418541      -1.15971851       2.01589394      -0.45841563
C       34.33089781      19.39755225      -7.42570002       0.76527600       0.32322575       0.20649847      -1.50307679       1.73722887       0.76824379
H       34.81628691      20.70807184      -5.33968477      -0.12103544      -0.06992304       0.04218307       1.42468023      -0.80554038       1.19042945
H       33.23860641      21.40369093      -4.97957666      -0.12749152       0.09300474      -0.13023020       0.42506593      -0.25894859      -0.30620369
H       34.43482366      22.31262899      -5.93583913      -0.13494432       0.07158103       0.01031107      -0.68412268      -1.50671637      -0.15866511
C       33.97707704      18.79367804      -8.61015294      -0.88311670      -0.05863574       0.64272243       0.53084952      -0.02205792       1.25062013
H       35.17942147      19.15572186      -6.80943648       0.12938157       0.32593216       0.12235619       0.12215506      -0.43562275      -0.30895776
C       32.93661265      19.26494636      -9.34420290       1.04653037      -0.00871257      -0.17974702      -0.98492032       0.77543855      -0.98996651
H       34.48116776      17.95942621      -8.98869169       0.01442664      -0.03846286      -0.00347154       0.98367953      -1.00275826      -0.32331812
H       32.80770481      18.82865404     -10.33396931      -0.32946629      -0.06277753      -0.09318681      -0.45386833       0.15554580       0.29218075
H       31.39712734      20.75785807      -9.54193491       0.03257723      -0.18888814      -0.26552413       0.34328991      -0.21884070       0.25351873
C       24.71911517      25.10343242      -0.49161070      -0.43992070       0.16633365      -0.27390638       0.01819933      -0.90848148      -0.21327677
C       25.00169565      26.05514043      -1.59202811      -0.22446850      -0.39517929       1.02476999      -0.01813783       2.05280781      -0.18969530
C       24.30991181      23.78912930      -0.74618144       0.02660326       0.47218078       0.03008518       0.33934727      -0.86741269      -0.17089285
C       24.87995084      25.47948033       0.81704629      -0.10376902      -0.08033384      -0.04083321      -0.25012141      -0.94606578       1.28160882
H       24.22777061      26.12257243      -2.36833126       0.06424469       0.20112744      -0.03333500       0.09894722      -0.27253661       0.34120354
H       25.94830044      25.88265387      -2.09481842       0.23240481       0.06445598       0.02175084       0.14495443      -0.30915982      -0.05172091
H       25.09198243      27.09286725      -1.17576754       0.22636709       0.15205004      -0.00798474      -0.11529413      -0.85343218      -0.30137151
C       24.13405906      23.27904596      -2.17653560      -0.75376612      -0.38572431       0.24403450      -0.17094034       1.48762631       1.07130682
C       24.01907805      22.97776006       0.34765825      -0.26771436       0.09043523       0.32434644      -0.37506196      -1.68471217      -0.20899327
H       24.55440325      23.97216080      -2.87789108       0.26009332       0.04200641      -0.00323015       0.21971419       0.33717030      -0.30938408
H       23.08030527      23.30362811      -2.31704354      -0.15030610       0.03363786       0.04102554      -1.00048494      -0.22352658      -0.57450145
H       24.49758194      22.31869501      -2.43130364       0.08741649      -0.27778975      -0.18544040       0.44669211      -0.85456073       0.26420197
C       24.21051944      23.37021564       1.67649844      -0.16534287       0.55681909      -0.39590386       0.21338385      -1.16900826       0.89363229
H       23.65304327      21.91864082       0.17284157      -0.02566467      -0.08576006       0.05906825       0.49377543       1.51484776       0.13047120
C       24.70510655      24.62469501       1.93773441       0.44603189      -0.44786221       0.13726682      -0.10584143       2.28394628       0.51622915
H       24.05332808      22.63327155       2.50140345       0.04348251      -0.04632841       0.02150481      -0.04519095       0.80244887      -0.92589772
H       24.85005651      25.11548745       2.98527696      -0.37817439       0.19518538       0.02542879      -0.27264237      -1.38872600      -2.16519856
H       25.09064437      26.48667146       0.99814240      -0.13027542      -0.03681648      -0.17306271       0.62650669       1.38367224       0.32500881
C       13.56464059      17.13440041      -3.94825715      -0.00279102      -0.08236380       0.35214284      -0.41571969       1.63942766      -0.40017995
C       13.34897947      18.66356227      -4.00563882      -0.00399967      -0.01728092       0.33588745       1.55622888      -1.30515337       0.84510112
C       12.43682455      16.33714610      -4.10679537       0.30401033       0.23830896       0.03447166       0.14425236      -1.54980278       0.29757792
C       14.82859469      16.58745529      -3.79640983       1.13510167       0.46028001       0.00585804       0.62867141       1.38672423       0.11588989
H       13.13907301      18.92621152      -5.02668028       0.07803515       0.00234004      -0.32609923      -0.38957867       0.44640842      -0.05261609
H       14.26464964      19.16394359      -3.67880952      -0.21425411       0.03339728       0.10512255       0.06889582      -0.15179212      -0.43434587
H       12.63088583      18.97452362      -3.25798675      -0.31972963      -0.12240512      -0.05009899      -0.57728475       0.10402632      -0.43290594
C       11.08296266      16.95004795      -4.23607036       1.04198202      -0.60152930       0.96514982       0.30180848       1.41266870      -0.37360907
C       12.64805258      14.95690423      -3.97156759       0.93375661       0.82382804      -1.05866602       0.02465067       0.54280883       0.57626921
H       11.03304490      17.68967046      -5.02843710      -0.31660577      -0.20758413       0.22930654       0.44925886       0.08826678      -0.47549641
H       10.93456258      17.60181780      -3.38773102       0.01260282       0.17374034       0.04155891      -0.47051978      -0.16837168       0.58251750
H       10.21854194      16.36946660      -4.46669440      -0.14679269      -0.16905478      -0.06767480      -0.17237709      -0.98376799       0.47983623
C       13.90225712      14.40986616      -3.74361186       1.17297340       0.61449933      -0.04221119      -1.46610737      -0.09774841      -0.29360977
H       11.84123957      14.28615447      -3.83691374      -0.24955941       0.04278651      -0.01415959      -1.01563907      -0.41590941      -0.44462594
C       14.98673293      15.22229961      -3.70430534       0.36527852      -0.81581558      -0.94473676       1.59415412      -0.32623342       0.00023386
H       13.95103084      13.34873879      -3.59140200       0.04952457      -0.19992173      -0.17554892       0.31609705      -0.11242459       0.00286647
H       15.94151104      14.71796488      -3.61398653       0.04494941       0.06804301      -0.37500957       0.24124633       0.49855852       0.16175903
H       15.66628424      17.32580705      -3.72936623       0.06320953       0.13769330       0.44020061      -0.59441423      -1.04022753      -0.05058903
C       20.67817869      38.05524330      11.15434044       0.40368628       0.22471425       0.25337037      -0.65484327      -2.42720890       1.61625171
C       20.64427902      37.94035351      12.65026804      -0.16882202      -0.32116260       0.44370922      -1.65023208       1.90105963       0.57886720
C       20.43938398      36.93720157      10.31382083       0.62143167      -0.00075095       0.91679549      -0.39156598       0.97956210       0.64010388
C       20.99810260      39.24978591      10.63832704       0.18695498      -0.37254872      -0.16285785       0.60489303       2.20042086      -1.34556639
H       21.33351703      37.26760851      13.08263592       0.15991277      -0.15404061      -0.05710635       0.89400542      -0.74165457       0.25316489
H       19.64957184      37.66893506      13.04573197       0.13742089      -0.18626797      -0.00502526       0.33143142      -0.09880283      -0.32259741
H       20.81875499      38.96512890      13.07539120      -0.13438839      -0.04213299       0.05320558       0.07422659      -1.05817807      -0.27150282
C       19.99533152      35.57429686      10.82235720       0.22552853       0.29066901       1.27086652      -0.28248185       1.41516995      -0.75587231
C       20.66642066      37.13411269       8.97650164       0.58056031      -0.05789231      -0.37846820       0.88411039      -1.34472644      -0.47548741
H       19.55599267      35.01812918       9.99729508       0.06432398      -0.01960482       0.00833974      -0.15221533       0.01973158       0.14179443
H       19.27989868      35.70808453      11.62921322      -0.25934791      -0.09949245      -0.02703006       0.12261444      -0.31777847       0.08416174
H       20.87513213      35.04916467      11.10499260      -0.21465140      -0.04707900      -0.20390407       0.48247743      -0.62001330       0.73856485
C       21.18369202      38.28698508       8.42210720      -0.15002859      -0.28877452      -1.15715169      -1.17063642       0.63409948       2.95020771
H       20.66149413      36.23519928       8.39939359      -0.11598468      -0.33022730       0.08312215      -0.25214341      -0.36256069      -0.68247873
C       21.21055320      39.38488508       9.27000643      -0.05130597       0.37958655      -0.77573207       0.63258159       0.29764366      -0.46403652
H       21.59509224      38.28610775       7.48673278       0.03011137      -0.10819495       0.22537047       0.46798769       0.26143241      -2.32919121
H       21.50862132      40.35218008       8.91068501      -0.09130896       0.03049786       0.02174531       0.21447290       0.22021462      -0.22954828
H       21.21523534      40.13649434      11.25583002      -0.00243173      -0.01666826       0.20013753      -0.40711111      -0.67980337      -0.14649937
C       14.05521603      -0.49977913       2.89358248       0.19283600       0.53857996      -0.41584732      -0.45274460       0.43877077      -0.12328345
C       13.04908763      -0.01170590       1.84046074       0.34632781       0.50674589      -0.03494351       0.54414594       2.06461644       0.77137983
C       15.37905726      -0.83873035       2.56643074       0.60174009      -0.29821783      -0.38950388       0.22941519      -1.18918872      -0.67665386
C       13.60549812      -0.70281139       4.19250491      -1.00681579      -0.53858245       0.30559115       2.01266789      -0.65183508       1.65879095
H       13.50452137       0.61038489       1.02594607       0.04880182       0.00130589       0.33340151      -0.25583172      -0.76373941       0.71918094
H       12.27189777       0.68329867       2.30839486       0.14522959       0.04004761       0.08131155       0.84569520      -1.33989501      -0.57132483
H       12.63157301      -0.89578309       1.41850793      -0.16325609       0.06954990      -0.20754531      -0.77066767      -0.35282823      -0.52862465
C       15.94982399      -0.66725885       1.17084149      -0.09235460       0.46593274      -0.00675645      -0.78173304      -1.12602305      -0.55099297
C       16.16064669      -1.55114567       3.49654190      -0.07527797      -0.36778861       0.17507135      -0.20136009       1.16947377       0.21335977
H       15.47019089       0.10966054       0.56900421      -0.15739840      -0.01860752      -0.05968652       0.10369108      -0.06743154       0.27751774
H       15.91186030      -1.63502584       0.55263871      -0.11420905       0.14565846      -0.29796681      -0.01039134       1.43795979       1.12550330
H       16.97174057      -0.41583365       1.32249020      -0.16171765       0.31057905      -0.04665175       0.92180234       0.17888306      -0.33262312
C       15.66519427      -1.72277943       4.77212563       1.10908629      -0.69011047       0.28566330       1.81608534      -0.89284289       1.83290362
H       17.21859094      -1.82480977       3.39097394      -0.36471016       0.03166647       0.13223471      -0.68553382       0.06801574      -0.72276151
C       14.46298981      -1.23593878       5.21340032      -0.76253857      -0.10114655      -0.03495335      -1.08102357       0.06520154      -3.24503374
H       16.35686315      -2.23402111       5.49149063      -0.56612800      -0.05433965       0.11795234      -0.79122889       0.46709430      -0.59168541
H       14.07635731      -1.47013691       6.16114457      -0.04764205       0.24960649      -0.11874857      -0.31621125       0.09126829       1.06541002
H       12.63376675      -0.50521068       4.54803383      -0.17177012       0.11504605      -0.11836836      -1.21346509       0.53907335      -0.29151881
C       13.71861592      -0.29199725     -10.02540838       0.10721990       0.21265268      -0.52355356      -2.47047162      -1.50096750       1.53592193
C       13.84019546       0.45195261      -8.73658752      -0.41000731       0.60999290       1.08601671       0.53103495      -0.00720933       2.12665248
C       14.46289477      -0.04866764     -11.15795053       0.06163055      -0.26896439      -0.03983964      -0.75716025       0.29883367       1.32444167
C       12.72015217      -1.33432890      -9.98824399       0.16268452      -0.28446557       0.50785475       1.60845709       0.79807043       0.28254580
H       14.77810661       0.17224142      -8.15067703       0.03171536       0.09676552      -0.05273749      -0.53142107       0.80476981      -1.19177544
H       13.11695668       0.04468377      -7.97906055      -0.23310126       0.27732151      -0.41660306       0.07644984       0.69135153      -1.02823949
H       13.72674915       1.56060543      -8.81844750      -0.02330293      -0.07343301       0.30825165       0.23901121      -0.92225277       0.15918423
C       15.44255237       1.08409958     -11.11841993      -0.25460629       0.42367011      -0.10819491       2.48969269      -0.89129639      -2.54040551
C       14.25056464      -0.95114021     -12.17556570       0.74367265       0.30516057      -1.04716268       1.19316518       0.08325030      -1.76694894
H       15.10130571       2.09268082     -10.98084636       0.21525125       0.09176001       0.00622699      -0.70359898       0.17821616       0.29609427
H       15.96489776       1.09539923     -12.15915789       0.17623932      -0.26083363      -0.22988649      -0.78785479       0.00941954       1.82307363
H       16.26234982       0.87351232     -10.38873549      -0.10150776       0.02193090       0.10725567      -0.87065113       0.29949892      -0.50570142
C       13.40037571      -2.03397167     -12.09795370       0.50566198      -0.29898137      -0.52355973      -0.18350795      -0.57583529      -1.28840923
H       14.80171986      -0.78260869     -13.10768114      -0.19070988       0.03857307       0.09824135      -0.04915413      -0.25037563       0.32345915
C       12.56844449      -2.20343016     -11.03072631       0.03581342       0.23592352       0.36107945      -0.04099580      -0.52925402       0.61614990
H       13.29811366      -2.77363011     -12.89398841      -0.11560380       0.10235538      -0.01438954       0.39525375       0.52310634      -0.09688050
H       11.88304741      -3.04889968     -10.94603880      -0.09531062       0.19788283      -0.15580313       0.34939051       0.40203631      -0.19459659
H       12.23883919      -1.62122698      -9.07071189       0.08706697      -0.01282852       0.04099445      -0.28495538       0.64161217       0.28454599
C       -7.17616842      18.02464946       7.32908430       0.18709273       1.07368595      -0.56953051      -0.96158040       2.64882302       2.12741923
C       -8.33334989      19.06177418       7.44213696      -0.00878569      -0.05093630      -0.48249668       0.27131709      -3.52167726      -0.63319439
C       -6.26414924      17.98390785       8.37605191      -0.86460778       0.62992982      -0.01735329       0.03509999      -0.35974559      -0.33729231
C       -6.88074613      17.40791488       6.16808837      -0.00032927       0.03228944       0.21521045      -0.88150793       0.39077514      -1.27934825
H       -8.87084872      18.96614853       6.52437177       0.09456255       0.25856798      -0.06726927      -0.12773266       0.83795559      -0.87748373
H       -7.94544874      20.00578551       7.68466026       0.02230121       0.01041082       0.23891421       0.14631079       1.24485087       0.18792221
H       -9.08634388      18.70526951       8.12148916       0.00612725      -0.13540874       0.06638698      -0.09423740       0.21463630       0.96400428
C       -6.51351760      18.65561349       9.64829984      -1.05505337       0.29826625       0.15987240      -1.65472078       1.79060042       0.45760900
C       -5.12511095      17.21224250       8.25119937      -0.05578481       0.04775295       0.31438209       0.78204143       1.60609519       2.54900384