1377
Lattice="23.613162386459877 0.0 0.0 0.0 23.613162386459877 0.0 0.0 0.0 23.613162386459877" Properties=species:S:1:pos:R:3:occupancy:R:1:bfactor:R:1:residuenames:S:1:atomtypes:S:1:residuenumbers:I:1:momenta:R:3:forces:R:3 energy=-542844.8377642877 free_energy=-542844.8377642877 stress="-0.00033471207532027 0.0006666052514343513 0.0019454396837082861 0.0006666052514343513 -0.00018331041929125095 -0.0014498264854384824 0.0019454396837082861 -0.0014498264854384824 0.0015693266182407843" pbc="T T T"
C        4.99211689      21.04454229       7.72625141       1.00000000       0.00000000 OCT C01        1      -0.16883635       0.49679819      -0.17203268       0.64110453       0.32611052       0.37781722
C        5.43955858      22.46858372       8.06400398       1.00000000       0.00000000 OCT C02        1       0.25012237      -0.27645625      -0.15043229      -0.74934058       0.50406954      -1.07866186
C        6.21272438      22.55876804       9.32698445       1.00000000       0.00000000 OCT C03        1      -0.15310632       0.41530119      -0.47716884       0.03750631       1.77872151       0.56224219
C        6.63487603      23.96704818       9.80573084       1.00000000       0.00000000 OCT C04        1      -0.21683299      -0.51699221      -0.23544096       1.87622784      -0.33913370      -1.78536283
C        7.66618921      23.86658503      10.94643098       1.00000000       0.00000000 OCT C05        1       0.68903072       0.61866353      -0.94793301      -0.14660656       1.12850411       0.31515301
C        8.09708049      25.24423632      11.52837766       1.00000000       0.00000000 OCT C06        1      -0.69332716      -0.26625050      -0.03623433      -1.74285884       0.12973644       0.88972584
C        9.29590688      25.09568461      12.45283223       1.00000000       0.00000000 OCT C07        1       0.45965811       0.31640821       0.16745308       0.18597290      -0.57022217      -2.55383605
C        9.99165096      26.33192086      12.89276332       1.00000000       0.00000000 OCT C08        1      -0.21151255       1.40695316       1.01714016       0.74459380       0.98853006      -0.84392516
O        9.33399820      26.98925044      13.95803727       1.00000000       0.00000000 OCT O09        1      -0.51305440      -0.04335299       0.38093520       2.06353558       1.25219935      -0.07979249
H        3.99530006      20.83956839       8.09469619       1.00000000       0.00000000 OCT H0A        1      -0.00858858       0.05200884       0.04654712       0.06963714      -0.21429364       0.06891526
H        5.73095945      20.31742589       8.06600627       1.00000000       0.00000000 OCT H0B        1       0.02669253      -0.02739882      -0.01622175      -0.30029620      -0.03025763       0.37973002
H        5.02551443      20.91717345       6.67723583       1.00000000       0.00000000 OCT H0C        1       0.02369639       0.30870785       0.24158097      -0.40996138      -0.11995492      -1.26701765
H        5.99011050      22.91185647       7.23567833       1.00000000       0.00000000 OCT H0D        1      -0.16862540      -0.01180868      -0.24497957       0.40813306      -0.20635495      -0.03082181
H        4.56404985      23.12003003       8.08186950       1.00000000       0.00000000 OCT H0E        1      -0.12880704      -0.14599377      -0.01444384      -0.19988238      -0.05452980       0.33644559
H        7.15683816      22.11665188       9.19984858       1.00000000       0.00000000 OCT H0F        1      -0.29606002      -0.21915391       0.15448799       1.09397892      -1.40099581      -0.15273205
H        5.65226289      22.06400497      10.09328331       1.00000000       0.00000000 OCT H10        1       0.15038586      -0.08868676      -0.06479306      -0.10447793      -0.41032569       0.72974131
H        5.80183428      24.55546644      10.06506307       1.00000000       0.00000000 OCT H11        1       0.25514865      -0.11251321       0.28903003      -0.95181718       0.72093893       0.59765131
H        7.10936924      24.51479800       8.90338114       1.00000000       0.00000000 OCT H12        1       0.01338566      -0.26865857      -0.03078461      -0.57047169      -0.79819971       1.30231771
H        8.59763757      23.36604852      10.69834052       1.00000000       0.00000000 OCT H13        1      -0.33400780       0.01913235      -0.07200164      -0.16760228      -0.22372585      -0.67410435
H        7.25005558      23.24957637      11.73919729       1.00000000       0.00000000 OCT H14        1      -0.08257085      -0.06515183      -0.00600235      -0.18926980       0.04156679       0.25877055
H        7.22960011      25.65972168      12.10702404       1.00000000       0.00000000 OCT H15        1      -0.06532695      -0.02509032       0.06472848       0.60651589      -0.03422696      -0.72597772
H        8.35913737      25.93648782      10.72239748       1.00000000       0.00000000 OCT H16        1      -0.17687365      -0.16316104      -0.08895774      -0.18556565      -0.23444620       0.13160573
H        9.88298730      24.49530546      11.76180582       1.00000000       0.00000000 OCT H17        1       0.07202531       0.14026798      -0.10261500       1.26301380       0.23150182       0.32611132
H        9.10655854      24.40932661      13.21248286       1.00000000       0.00000000 OCT H18        1       0.05247610      -0.24355768       0.13277075      -0.60156871      -0.62366894       1.57672799
H       10.10151087      27.04141146      12.03686457       1.00000000       0.00000000 OCT H19        1      -0.04808686       0.16536065       0.27444759      -0.25048457      -0.50284085       0.59158374
H       11.01788807      26.15405567      13.21836848       1.00000000       0.00000000 OCT H1A        1      -0.24210041       0.03011483       0.01184255      -0.04820553      -0.35867991       0.04733358
H        8.48619333      26.64047300      14.03375464       1.00000000       0.00000000 OCT H1B        1       0.12843282      -0.17429654      -0.24282462      -2.47328571      -1.02570287       0.54814132
C        8.91384564      11.22643116       9.16410106       1.00000000       0.00000000 OCT C01        2       0.58314748       1.09929669       0.28437045       1.18054473       1.53433908       0.28122914
C        8.88339350       9.79837168       8.70660930       1.00000000       0.00000000 OCT C02        2      -0.16340069       0.32069109       0.12531966       1.70302635      -1.02800749       0.51506358
C        9.08783634       9.58519329       7.21406687       1.00000000       0.00000000 OCT C03        2       0.56711018       0.28855754      -0.01839919      -0.09565004      -1.33163468       0.38083076
C        9.09127611       8.08152663       6.86563537       1.00000000       0.00000000 OCT C04        2       0.05885724      -0.16047543      -1.10292179       0.96252088      -0.35408660       0.19002346
C        9.00358796       7.78573398       5.37743046       1.00000000       0.00000000 OCT C05        2      -1.44980432       0.66878091      -0.50342456       0.42984786       0.62009460      -2.19125691
C        9.18771965       6.31112318       4.92375748       1.00000000       0.00000000 OCT C06        2      -0.42935135       0.42697330      -1.01387619       0.72641818       0.71593294       2.33320944
C        9.24153302       6.08754630       3.47888210       1.00000000       0.00000000 OCT C07        2      -0.70866806       0.34234447       0.15717866      -0.23408829       0.84499392      -0.11663019
C        9.31922764       4.67174252       3.01112984       1.00000000       0.00000000 OCT C08        2      -0.48357234       0.27759164      -0.31365324       1.02486754       0.56592822      -0.16754142
O        8.10294079       3.97739599       2.97867896       1.00000000       0.00000000 OCT O09        2       0.88264597      -0.11069511       0.29316143      -0.09633031      -0.07606421       0.76279465
H        8.04592247      11.76693650       8.87570075       1.00000000       0.00000000 OCT H0A        2      -0.00220194      -0.06206960       0.20739337      -0.70560834       0.13496246      -0.42624597
H        9.73230485      11.87757684       8.73181486       1.00000000       0.00000000 OCT H0B        2      -0.01604669      -0.14607619       0.08485252      -0.41797493      -1.10263106       0.40805811
H        8.96429183      11.35731347      10.26035090       1.00000000       0.00000000 OCT H0C        2      -0.12896260      -0.13354988      -0.13450254       0.08274905      -0.31525920      -0.44142900
H        9.74883514       9.24184327       9.18897440       1.00000000       0.00000000 OCT H0D        2       0.16255772       0.01371824      -0.11401148      -0.99534250       0.56625833      -0.23209545
H        7.97174786       9.30170067       9.05112102       1.00000000       0.00000000 OCT H0E        2       0.17674511       0.05712169      -0.17254659       0.14741373       0.06824554      -0.18151002
H        9.97409443      10.08706962       6.86240093       1.00000000       0.00000000 OCT H0F        2      -0.00685819      -0.06613239      -0.02176713       0.50422586       0.07007246      -0.03988784
H        8.28966788       9.97863519       6.66034292       1.00000000       0.00000000 OCT H10        2      -0.08872701       0.00496181       0.00209178      -1.29302585       0.92338784      -0.67835604
H        8.23788368       7.61046455       7.35465139       1.00000000       0.00000000 OCT H11        2       0.01524073       0.13451372      -0.30971060       0.20640187       0.00981008       0.16713611
H       10.03977405       7.62705825       7.26637809       1.00000000       0.00000000 OCT H12        2      -0.11622885      -0.08326960       0.19923504      -0.87322646       0.25616430      -0.27418566
H        9.78002160       8.44247751       4.81509049       1.00000000       0.00000000 OCT H13        2      -0.16177088      -0.07543438       0.12395070      -1.26260262      -0.97055686       0.77217108
H        7.99459009       8.01096986       4.94594145       1.00000000       0.00000000 OCT H14        2      -0.08332195      -0.06707667       0.07948850       0.69690449       0.54915386       0.55365436
H        8.31455628       5.77882675       5.29269699       1.00000000       0.00000000 OCT H15        2      -0.36014633       0.23197478      -0.27029693       0.34767906      -0.41200279       0.55206774
H       10.14621170       5.97282563       5.34838905       1.00000000       0.00000000 OCT H16        2       0.12859005      -0.14878881       0.39629621      -0.51055890      -0.42485118       0.33180695
H        9.97240186       6.74410306       3.04789686       1.00000000       0.00000000 OCT H17        2       0.16590379      -0.07991039       0.26030697       1.11265246      -0.29948336      -0.26063754
H        8.39697041       6.56664143       3.08663933       1.00000000       0.00000000 OCT H18        2       0.03456662       0.17173551       0.00331513      -1.71314332       0.25666531      -0.90707516
H       10.14242363       4.17097283       3.53544216       1.00000000       0.00000000 OCT H19        2      -0.09044545       0.23098975      -0.15664420      -0.52541881      -0.34024094       0.02700743
H        9.60402256       4.78819473       2.00453513       1.00000000       0.00000000 OCT H1A        2       0.18381338      -0.30578092       0.07183525       0.81385887      -0.21759919      -1.40028997
H        8.03442279       3.56765281       2.11300854       1.00000000       0.00000000 OCT H1B        2       0.07580103      -0.01829464       0.09254010      -0.45283024      -0.21094363      -0.57931020
C       -1.87103034       3.32987023       7.17585583       1.00000000       0.00000000 OCT C01        3       0.47245273      -0.38413046       0.36064119       0.86284362       0.77144643      -0.51637497
C       -0.64094077       2.76150870       6.46870822       1.00000000       0.00000000 OCT C02        3      -0.78599334      -0.00916205       1.20100890      -1.21363608      -1.62648820      -0.09153222
C        0.35668219       2.17498250       7.45163374       1.00000000       0.00000000 OCT C03        3      -1.02572579       0.87574535      -1.01191376      -0.98400830       0.57831908       0.53935555
C        1.71517036       1.82076136       6.86391652       1.00000000       0.00000000 OCT C04        3       0.12005952       0.04468172       0.00323366      -0.32683972      -0.48603548       0.85440231
C        2.48180304       3.03187947       6.38644925       1.00000000       0.00000000 OCT C05        3       0.63054759       0.51852589      -0.68840796      -1.73868899       1.02204738       0.01980492
C        3.91079936       2.86072192       6.15322685       1.00000000       0.00000000 OCT C06        3       0.17156086      -0.63167769       0.59055603       2.42895923      -2.61227134       0.21261643
C        4.65512282       3.97217616       5.50195183       1.00000000       0.00000000 OCT C07        3       0.17844966      -0.39838639      -0.83204112      -0.51977614       1.77743977       1.48710239
C        6.12654831       3.77407544       5.24759111       1.00000000       0.00000000 OCT C08        3      -1.01453103      -0.10461110      -0.13126192      -0.73615225       2.18505442       1.82794636
O        6.31950445       2.74855701       4.38497292       1.00000000       0.00000000 OCT O09        3       0.16327300      -0.66312015      -0.32856250       1.11830297      -1.59517229      -1.79581197
H       -2.59635183       3.81653831       6.47704320       1.00000000       0.00000000 OCT H0A        3       0.27812686      -0.00167846      -0.20703613       0.68780834      -0.32287504       0.72089555
H       -1.40893391       4.05758422       7.87995522       1.00000000       0.00000000 OCT H0B        3      -0.14156566      -0.01624064      -0.13750346      -1.05796617      -0.24660262      -0.12929170
H       -2.34352941       2.50334055       7.67541577       1.00000000       0.00000000 OCT H0C        3      -0.14202416      -0.11830540       0.02116198      -0.47528016       0.06164886       0.58953249
H       -0.95005526       1.89605005       5.85892201       1.00000000       0.00000000 OCT H0D        3       0.23039466      -0.00100122      -0.08521679       0.00558271       0.38546474      -0.23953846
H       -0.25538328       3.48188111       5.80750941       1.00000000       0.00000000 OCT H0E        3      -0.01944041       0.14045901      -0.11427965       0.83218397       0.94484547      -0.72376511
H       -0.16083978       1.29596253       7.87836181       1.00000000       0.00000000 OCT H0F        3      -0.11771573       0.15644210      -0.17402180       0.53111121       0.12930732      -0.12702341
H        0.41765416       2.88124197       8.31220240       1.00000000       0.00000000 OCT H10        3      -0.24427489       0.39099935      -0.01872599       0.49439957      -0.37801954      -0.49576372
H        1.58071239       1.12510125       6.03002116       1.00000000       0.00000000 OCT H11        3       0.09446143       0.04565716       0.08797362       0.13244769      -0.25993484       0.31720360
H        2.20774001       1.33778182       7.73456941       1.00000000       0.00000000 OCT H12        3       0.06935093      -0.12097032       0.18116189       0.38670538      -0.00589082      -0.90176113
H        2.33385687       3.76268642       7.17317941       1.00000000       0.00000000 OCT H13        3       0.15589800      -0.10886792      -0.10316492       0.04716964       0.54740950       0.02584696
H        2.01229984       3.45650574       5.47497244       1.00000000       0.00000000 OCT H14        3      -0.21154070      -0.16642948       0.04759312       0.07647712      -0.23897958       0.45802795
H        4.09513995       1.93892393       5.56491997       1.00000000       0.00000000 OCT H15        3      -0.11711418       0.28871560       0.06516558      -0.19278825       0.27029041       0.16353746
H        4.42645233       2.62923847       7.10472771       1.00000000       0.00000000 OCT H16        3       0.05277567      -0.17951257       0.05843706      -0.25374808       0.06511707      -0.15121355
H        4.54549867       4.82920726       6.24415411       1.00000000       0.00000000 OCT H17        3       0.18794762       0.17797389       0.05539250       0.13668839      -0.57892580      -1.34913161
H        4.17507305       4.20418250       4.56676184       1.00000000       0.00000000 OCT H18        3      -0.11218946       0.03669357      -0.05301859      -0.24244125       0.46728090      -0.34864932
H        6.63672479       3.67808471       6.22534402       1.00000000       0.00000000 OCT H19        3       0.29005374       0.11072939       0.05475168       0.07141295      -0.39339067      -0.32689698
H        6.48661639       4.71524439       4.81972349       1.00000000       0.00000000 OCT H1A        3       0.01198731       0.13457380       0.05233298       0.11471341      -0.03085177       0.00639923
H        7.13100601       3.00596431       3.87200320       1.00000000       0.00000000 OCT H1B        3      -0.01728374      -0.07932469       0.16921906      -0.56132621      -0.41342311       0.35589033
C        7.30714880      10.03589043      24.58019328       1.00000000       0.00000000 OCT C01        4      -0.57326256       0.48394053       0.15240980      -0.94352356       0.05775222       0.29314597
C        8.42463318       9.08635822      24.94570136       1.00000000       0.00000000 OCT C02        4       0.22780402      -0.17208321       0.38640449       1.47338908       1.87112763      -0.26501952
C        9.78589408       9.62105920      24.31336736       1.00000000       0.00000000 OCT C03        4       1.22060577       0.82468045       0.42768068      -0.85843308      -1.01656403       0.03699993
C       10.88534021       8.62701824      24.64710544       1.00000000       0.00000000 OCT C04        4      -0.20551181       0.14964970       0.95771708       0.74291565       0.97253013      -0.71546696
C       10.78739923       7.28725098      23.94957685       1.00000000       0.00000000 OCT C05        4      -0.05254496      -0.41356693       0.06937117       0.53900264      -0.43104862      -0.68931205
C       12.01473744       6.50770709      24.32388756       1.00000000       0.00000000 OCT C06        4      -0.22706788       0.71067828      -0.66956195       0.77237843      -1.98125072      -0.81105047
C       12.19167758       5.19162333      23.48235615       1.00000000       0.00000000 OCT C07        4      -0.32905448       0.19380685      -0.19991565      -0.24908909       1.67070505      -1.35717987
C       13.54478481       4.52462215      23.61970488       1.00000000       0.00000000 OCT C08        4       0.72417574       0.19357142       0.04009843      -0.59293341       0.94500324       0.31872942
O       14.50700749       5.41696757      23.10085012       1.00000000       0.00000000 OCT O09        4      -0.58762590       0.33646256      -1.25412239       0.23563819       0.19913488      -0.52047761
H        7.44609851      11.00927273      25.07890833       1.00000000       0.00000000 OCT H0A        4      -0.14011249      -0.24110091      -0.00987943      -0.07859375      -0.39908362      -0.41887582
H        6.31390796       9.65464777      24.89699451       1.00000000       0.00000000 OCT H0B        4      -0.08667020       0.07126663      -0.18741633       0.63681344       0.23098560      -0.21469340
H        7.27507751      10.16255752      23.48728819       1.00000000       0.00000000 OCT H0C        4      -0.18793655       0.16390173      -0.26994628      -0.01580058       0.18265253       0.40335566
H        8.56425917       9.01645105      26.03749619       1.00000000       0.00000000 OCT H0D        4       0.04544044       0.04386156       0.03680504      -0.14195028      -0.04387917      -0.43536853
H        8.22947867       8.11534106      24.55221469       1.00000000       0.00000000 OCT H0E        4      -0.10879356       0.05656293       0.31678354      -0.09016944      -0.74932691      -0.13387496
H       10.08053986      10.61302433      24.65576441       1.00000000       0.00000000 OCT H0F        4      -0.24106460       0.34899597       0.06080964      -0.44016361      -0.05149755       0.20461942
H        9.70565715       9.71388342      23.20525374       1.00000000       0.00000000 OCT H10        4      -0.13458074       0.20451692      -0.07351565      -0.30367553      -0.19291133       0.80392426
H       10.86940360       8.37302708      25.69607668       1.00000000       0.00000000 OCT H11        4      -0.09650041      -0.12535258       0.00361893      -0.06741439       0.22775900       0.50309357
H       11.89241039       9.11497706      24.50111053       1.00000000       0.00000000 OCT H12        4       0.04263299       0.06418617       0.03562280      -0.88110858      -0.67874991      -0.11164316
H       10.62153628       7.19809390      22.86032926       1.00000000       0.00000000 OCT H13        4       0.03423963      -0.12620248      -0.07859878       0.23405272       0.97537848       0.26330258
H        9.96533738       6.72353427      24.32220252       1.00000000       0.00000000 OCT H14        4      -0.27755884      -0.18656902      -0.12406494      -0.92803422      -0.26615360       0.50766213
H       11.86615103       6.15759103      25.32161173       1.00000000       0.00000000 OCT H15        4       0.09028314      -0.17808505      -0.07881214       0.41620992       0.21176963       1.03498671
H       12.92599438       7.10416544      24.22413323       1.00000000       0.00000000 OCT H16        4      -0.12685043       0.25968588       0.01516006      -0.16054853      -0.16364542       0.25361511
H       12.04355666       5.59577805      22.43310814       1.00000000       0.00000000 OCT H17        4       0.30886818      -0.04345114       0.07194609       0.09930668      -1.14349133       0.73122354
H       11.41915273       4.48403036      23.74213914       1.00000000       0.00000000 OCT H18        4       0.05578376       0.19867257       0.11986734      -0.37539800      -0.08880744      -0.17381452
H       13.64756563       3.53692061      23.19788395       1.00000000       0.00000000 OCT H19        4       0.20988907      -0.23304154       0.41241941      -0.33404188      -0.19021672      -0.55716400
H       13.66839389       4.39448281      24.67442013       1.00000000       0.00000000 OCT H1A        4       0.10847885       0.15182484      -0.17083930       0.52639431      -0.06221604       0.84421067
H       15.29191351       5.37014171      23.65282553       1.00000000       0.00000000 OCT H1B        4       0.31048851       0.01765020      -0.05917002       0.33519897      -0.05417785       0.41687112
C       11.12709187       6.59031107      19.05605164       1.00000000       0.00000000 OCT C01        5      -0.70255785       0.57146083       0.59799056       2.32752296      -3.20613673       0.36369015
C       10.54862507       5.87627207      17.83961413       1.00000000       0.00000000 OCT C02        5      -0.08820138       0.99231354       0.25138239       2.04625477      -0.02126238      -0.02556512
C        9.25640448       6.52925716      17.50722764       1.00000000       0.00000000 OCT C03        5       0.68486517      -0.36171195       1.33818240      -1.66052436      -0.59305294      -0.45647127
C        8.45522960       5.92218722      16.34721563       1.00000000       0.00000000 OCT C04        5       1.23982125       0.10728850      -0.18755135       1.40747844       0.79464469      -0.93940316
C        7.29051442       6.81502994      15.87490997       1.00000000       0.00000000 OCT C05        5       0.36531310      -0.47728697      -0.05305701       0.08555359      -1.51788897      -0.20780173
C        6.69376854       6.06301858      14.68304747       1.00000000       0.00000000 OCT C06        5       0.33280153      -0.28121453       0.83820900      -0.04075247      -1.42656375      -0.15955415
C        5.47121229       6.59574981      13.97275540       1.00000000       0.00000000 OCT C07        5       0.04337885       0.26429524      -0.23964632      -0.61517087       1.01381983       1.19245167
C        5.73354656       7.91374097      13.30786537       1.00000000       0.00000000 OCT C08        5       0.11409338      -0.87554963      -1.05595002      -0.97159796       2.24258577       1.83013403
O        4.50357689       8.56018274      12.88344237       1.00000000       0.00000000 OCT O09        5      -0.17989327       0.84257306       0.44176438       0.15703448      -0.41513587       1.15437913
H       10.49962521       6.65150551      19.88380919       1.00000000       0.00000000 OCT H0A        5       0.37703890       0.29072486       0.11866205      -1.52657829      -0.25604499       1.37765548
H       11.38916200       7.56392927      18.86916615       1.00000000       0.00000000 OCT H0B        5       0.08040685       0.09384084       0.15992302       0.70803160       2.36183857      -0.84478060
H       12.06932777       6.06101461      19.44543074       1.00000000       0.00000000 OCT H0C        5       0.11930506       0.14627240       0.15789008      -1.25019858       0.77321624      -0.63726269
H       11.28986529       6.08882205      17.01479977       1.00000000       0.00000000 OCT H0D        5      -0.06358593      -0.12023874      -0.18098379      -0.89337977      -0.35258844       0.63441319
H       10.57193617       4.77316406      17.99005943       1.00000000       0.00000000 OCT H0E        5      -0.15508902      -0.11851391       0.28101115      -0.46495280       0.84287044      -0.26670494
H        9.49194240       7.56444478      17.30579211       1.00000000       0.00000000 OCT H0F        5       0.08233495      -0.19842440       0.12502004      -0.24181248       0.41736481      -0.07558821
H        8.55647114       6.48895252      18.36157782       1.00000000       0.00000000 OCT H10        5       0.12574567       0.15910524       0.02361778       0.52673736       0.38720496      -0.10626172
H        8.15594143       4.91774073      16.60291740       1.00000000       0.00000000 OCT H11        5      -0.15291183       0.19301691       0.06766105      -0.45575967      -0.19108637       0.21038296
H        9.12690960       5.73167816      15.46009242       1.00000000       0.00000000 OCT H12        5       0.14502140      -0.26327179      -0.25729082      -0.45573499       0.42711641       0.79332877
H        7.65588886       7.76538935      15.52311860       1.00000000       0.00000000 OCT H13        5      -0.04638558      -0.04832582       0.08556481       0.12836551       0.39781396       0.23870703
H        6.57401515       6.95342755      16.69313047       1.00000000       0.00000000 OCT H14        5       0.11440684       0.40913456      -0.17939402       0.01772787       0.07162100      -0.22710540
H        6.47531357       5.00736382      14.96557364       1.00000000       0.00000000 OCT H15        5       0.13834581      -0.06719081       0.15949604       0.18354287       0.96623871       0.01999851
H        7.51112250       5.92390368      13.95590964       1.00000000       0.00000000 OCT H16        5      -0.13320555      -0.19200695       0.00080507      -0.21620318       0.23224666       0.03620599
H        4.62044891       6.75989087      14.65241459       1.00000000       0.00000000 OCT H17        5       0.16079239      -0.10415061      -0.20614156       0.43385284       0.05096748       0.26227778
H        5.04434125       5.88036202      13.30772823       1.00000000       0.00000000 OCT H18        5       0.14376388       0.28071676       0.02183678       0.10158421      -0.56840034      -0.94555873
H        6.35327741       7.82179024      12.48453635       1.00000000       0.00000000 OCT H19        5       0.03148432      -0.01015153      -0.19894451       1.38959700      -0.29433861      -1.67929025
H        6.23792593       8.68116419      14.01545253       1.00000000       0.00000000 OCT H1A        5      -0.06102171       0.05251172       0.04562834      -0.68168351      -1.52218530      -0.92317362
H        4.44753394       8.60180494      11.93316857       1.00000000       0.00000000 OCT H1B        5      -0.22041931      -0.10157541       0.31319928       0.17531221       0.03556536      -0.85629578
C       12.91327867       4.92463288       4.06065194       1.00000000       0.00000000 OCT C01        6      -0.75235952      -0.57506217       0.58443656      -0.45169515      -2.57763518       0.01646368
C       13.18199056       4.35523736       5.51678209       1.00000000       0.00000000 OCT C02        6       0.76279947       0.65427437       0.02207549       0.91113292       0.27634036      -2.87631563
C       13.40502447       2.87722365       5.58297403       1.00000000       0.00000000 OCT C03        6       0.25528022      -0.60691437       1.26628909       0.51817721      -2.14852092      -0.83804268
C       13.76625020       2.46623362       6.99228444       1.00000000       0.00000000 OCT C04        6       0.64866617      -0.95014352      -0.22852244      -0.47882585      -1.09589207      -0.01209155
C       14.52938726       1.14892409       7.09979506       1.00000000       0.00000000 OCT C05        6       0.60613789      -0.73720791      -0.34200311       0.44368917       0.21348364       0.79547038
C       15.15596475       0.79924792       8.46481847       1.00000000       0.00000000 OCT C06        6      -0.25235427      -0.61440379       0.80283176       0.55919254       1.12496133      -0.41056610
C       15.81008179      -0.57489928       8.40019497       1.00000000       0.00000000 OCT C07        6      -0.34336056       0.16096628       1.07417311      -0.73363137      -0.19420394       1.03615593