1152
Lattice="22.12526907346109 0.0 0.0 0.0 22.12526907346109 0.0 0.0 0.0 22.12526907346109" Properties=species:S:1:pos:R:3:momenta:R:3:forces:R:3 mol_liquid.pdb=T energy=-475701.96875 free_energy=-475701.96875 stress="0.0013685452286154032 0.001451503369025886 0.00038667177432216704 0.001451503369025886 0.00485104788094759 -0.0010668729664757848 0.00038667177432216704 -0.0010668729664757848 -0.0015889580827206373" pbc="T T T"
C       13.35134218       5.10611039      -3.18811602      -0.15277374       0.64862962       0.81506675       0.39390922       1.05446076      -0.70611650
C       13.74798047       5.71970309      -1.85952443      -0.05188226      -0.29812326      -0.27406766       0.09357253       0.60121077      -0.50442892
C       11.93360398       5.36507364      -3.63690148      -0.23658468       0.29369525       1.32506265      -0.19636500      -0.29821995       0.33160871
H       13.45616689       4.05015822      -3.22667181       0.11574351      -0.02166413       0.11539983       0.77845842      -0.86302936       0.01979837
H       13.94271305       5.60402067      -3.96287380      -0.15853645      -0.10185531       0.10609101       0.54301542      -0.54606062       0.17586921
C       12.84542614       5.33678004      -0.67098009       0.12062010      -0.39569310      -0.08268635       1.94581020      -0.29194337       0.66114813
H       13.67804475       6.81868568      -2.04265630       0.15820526      -0.00882307      -0.02035302      -0.16752398      -0.87414575       0.48773515
H       14.84243589       5.60086323      -1.61511408      -0.28687710      -0.12569731       0.15112234      -1.16776562      -0.38707587      -0.21913393
C       13.27182686       6.32591669       0.40131762      -0.21086894      -0.41711558      -0.12070323       0.18688710       1.68261099       0.52168381
H       12.93509632       4.25667259      -0.35514765       0.02857042      -0.20818943      -0.19649060       0.36797020       1.09241188      -0.20446624
H       11.80950038       5.44703894      -0.86159063       0.37948751      -0.07972156      -0.11130321      -1.02052999       0.42500067      -0.44258952
O       12.85956718       7.67279594      -0.00534310      -0.53659106       0.21279338       0.73212455      -1.14461446      -1.61385846      -0.52163303
H       14.33923370       6.49418382       0.46017146       0.15313656      -0.02310339       0.09834234       0.58629519      -0.97536922      -0.17201442
H       12.98689636       6.14625553       1.43710394       0.11908109       0.19215443       0.02113383      -0.62532628      -0.25575688      -0.08264585
H       13.07808137       8.30724943       0.67834115       0.04623821      -0.25152600      -0.18307526       0.01197399       0.57629818       0.50366324
H       11.86266444       5.38671001      -4.70435270      -0.16164400      -0.03156254       0.02334580       0.06364973      -0.07023726      -0.65440536
H       11.56702420       6.31067222      -3.29481118       0.07542627      -0.11131668       0.15151136      -0.40760803       0.48065305       0.39256749
H       11.32246782       4.53686805      -3.31246072       0.03181641      -0.06520956       0.01186938      -0.64708638       0.10742687       0.27484259
C       -5.56798469      28.84692766       7.11084063      -0.28456922      -0.75918170       0.26309313      -0.29390931       0.10252582       0.16705260
C       -5.29199046      27.35573188       7.07298533       0.61376771       0.45825617       0.36436791      -0.88939136      -0.86167747       1.96606708
C       -6.81974429      29.22239576       6.25911381      -0.13816174      -0.83432738       0.28005416      -0.42645514       1.10402215       0.20806560
H       -4.62487368      29.36206220       6.82011415      -0.30373166      -0.22080851      -0.19417163      -0.82368577      -0.02105732       0.04207880
H       -5.81981959      29.11431828       8.19529169       0.01014308      -0.03781458       0.10973025       0.61264420      -0.18185171      -1.51058495
C       -4.05162859      26.98785842       7.88499187      -0.25243160      -0.40676885       0.11337465       0.30137640       0.15593272      -0.43452990
H       -5.15494889      26.97355226       6.09187284      -0.24687220      -0.06934682       0.05643437      -0.26830488      -0.15771443      -0.95302510
H       -6.19105290      26.86476529       7.55551691      -0.07725922       0.20966885      -0.09084382       0.92197168       0.17922528      -0.81357807
C       -3.55762568      25.53275271       7.87984800      -0.77246955      -1.32571528      -0.43407085      -0.72590697       1.95565414       0.35691878
H       -4.23415077      27.23709082       8.91904998       0.24372861      -0.11702679       0.25790546       0.07215911       0.22319332       0.40444040
H       -3.23068617      27.63740334       7.52256779      -0.16417589       0.02941329      -0.01553567      -0.13521390      -0.27207467       0.32189918
O       -2.98452836      25.17517556       6.63941244      -0.30555713      -0.46916822      -0.01109074      -0.08211271      -0.41754797      -0.03199822
H       -4.33117071      24.88996093       8.25146094      -0.10600223       0.14640336      -0.11194253      -0.58602321      -0.59581333      -0.52170694
H       -2.84184466      25.49438184       8.65444206      -0.11685463      -0.20027490      -0.01281651       1.36187291      -0.17567474       0.70881510
H       -3.50740292      24.41672754       6.35042962      -0.07384102       0.06926878       0.12715130      -0.29679281      -0.10339758      -0.33658838
H       -7.11504839      28.62149444       5.35416522      -0.21809835       0.08005266      -0.12706590       0.88889575       0.40654957       1.02576017
H       -6.78228580      30.30877879       5.97149590      -0.19034564      -0.21242757       0.08509219       0.07419731      -1.02374601       0.10878977
H       -7.66752879      29.17621277       6.96562304       0.21642237       0.21648367       0.20943579       0.11059719      -0.16908087      -0.49813533
C       12.93782313      -7.23923543      -1.62842635      -0.72261618       0.10957881      -0.28676650      -0.94841969       1.41278028      -0.42341623
C       12.38023882      -6.32914016      -0.53275306       0.11846190       0.21068607      -0.57667665      -2.48846745       0.87630045       0.24013308
C       12.00423942      -7.53806146      -2.83005621      -0.14458887       0.43060154       0.56214135       1.28857279      -0.21071066       1.06702495
H       13.22459466      -8.14941747      -1.21335356       0.10530246      -0.26031676       0.11384225      -0.01527026      -1.74217975       1.06547046
H       13.91919386      -6.85040557      -1.87768976       0.08820893      -0.01931401      -0.31698955      -0.04488816       0.49229431      -0.67225629
C       13.04260196      -6.56001258       0.77988949      -0.40944448      -0.20882813      -0.29553858      -0.01652318       0.17557450       0.60606188
H       11.25368474      -6.48121032      -0.30781212      -0.19455936      -0.19220116      -0.05479217       1.46927631      -0.14042032      -0.81651318
H       12.41404162      -5.23832507      -0.73469561       0.16122269       0.20779741       0.14135174       0.26375175      -0.61611128      -0.52459323
C       12.58819112      -5.65845957       1.92881161       1.19629432       1.18398305       0.16737041      -0.29006580      -0.45486066       0.20920166
H       14.09819705      -6.44019833       0.70410852      -0.26297299      -0.06550820       0.19250680       0.75171125       0.01861165      -0.28930950
H       12.83907272      -7.59167285       1.00526845       0.10809595      -0.37659374      -0.23606391       0.20864139      -0.49804944       0.53005445
O       13.66162803      -5.09867530       2.67798394       0.69169137      -0.02376070      -0.84101162      -1.07529104       1.24276805       0.02139908
H       11.94845744      -6.25088974       2.60137205      -0.04712701      -0.26956504       0.10905941       0.05340948       0.26562670      -0.11947428
H       12.02437535      -4.78522321       1.61245854      -0.13742497      -0.06190966      -0.17893736      -0.01267533      -0.17240179      -0.50197846
H       14.34988150      -5.73333889       2.72735299      -0.00783720       0.03730189       0.01695810       1.30776715      -1.24468493       0.23045656
H       11.42099805      -8.45517438      -2.67528367      -0.08691452       0.03534538      -0.11079903      -0.11036873       0.72135675       0.06243733
H       12.63342091      -7.68600628      -3.66900985       0.03457653      -0.04824798       0.12874645       0.55502653      -0.47381857      -0.96929061
H       11.44761290      -6.67992953      -3.11183988      -0.16836856      -0.32140107      -0.03136540      -0.95933139       0.54225963       0.06332660
C        6.16292225      -0.43855727      15.87700353       0.07442939       0.39956097       0.29680658      -1.11199164       0.10928315       0.18706410
C        6.49599027       1.03571321      16.18545007       0.27321927       0.15133646      -0.59196355      -0.47478464      -0.02489245       1.43128157
C        6.32226181      -1.43388661      17.01903587      -0.70239835      -0.03964627       0.28872023      -1.68551254      -0.08709811      -0.02578211
H        6.89959400      -0.64892671      15.12857713      -0.23507985       0.01023748      -0.22274013      -0.04874774      -0.70793903      -0.86404657
H        5.08026154      -0.58055669      15.48518855      -0.00034012       0.06162838      -0.18488162       1.87346447       0.57977718       0.24473438
C        5.54192349       1.65125645      17.25246745       0.63099305       0.26375156       0.12506405      -0.40023521      -0.97372460      -0.31435841
H        6.42109428       1.55328586      15.22812425      -0.00902010      -0.10643211       0.16425723       0.18353912       0.34471637       0.27624041
H        7.52379065       1.10498131      16.60805710       0.00078123       0.13714112       0.20194050      -0.43067163      -0.04487103      -0.67860579
C        5.48850106       3.11935138      17.40750251      -0.93194448      -0.27283253       0.46745696       0.19737807       1.59889090       1.46599758
H        5.78214664       1.35471947      18.27647048       0.09035240      -0.16154001      -0.05664707       0.03312320      -0.71327108      -0.19487804
H        4.54305392       1.28685857      17.02316104       0.00236198      -0.14065631       0.00324420      -0.25597072      -0.12442946       0.10800476
O        5.30445974       3.86403862      16.25103935       0.21950246      -0.17742599      -0.67758539      -0.47190878       0.64881134      -1.69164193
H        6.46072628       3.45983262      17.77594921      -0.02132060      -0.10912366      -0.13969668      -0.03627677       0.00980190       0.13797964
H        4.72724314       3.47938129      18.18187699       0.17266823       0.06427731       0.02302456       0.80649680      -0.93508303      -0.73400301
H        4.59396258       3.50260510      15.68954551      -0.09729525      -0.03545838       0.00289344      -0.09532233      -0.16467625       0.14227140
H        5.66779553      -1.13934657      17.84682396      -0.00872158       0.35869412       0.24367253      -0.19356267      -0.18755582      -0.14135331
H        7.28734660      -1.41893874      17.45003931       0.06987631      -0.31876619       0.20048451       1.19483519      -0.28712627       0.10238254
H        6.01912964      -2.45780576      16.68299917       0.09220970      -0.25458771      -0.28862361       0.48427323       0.93921506       0.43906730
C       -4.43922790      -5.02012888       5.56466382      -0.11692832       0.04273808      -0.85654104      -2.01703453       0.36295229       0.58776498
C       -5.96485995      -4.90122803       5.22470900      -0.76500310      -0.43377390       0.09923361       0.46440464       0.90891492      -1.21475077
C       -3.89464813      -6.06417446       4.65326650      -0.60171633       0.31904273       0.56288712       0.30066845      -0.12309194      -1.65315318
H       -4.40539823      -5.43565459       6.54138200       0.05796806      -0.07218974      -0.12889925       0.29697770       0.01368056       1.27757835
H       -4.03144384      -4.01150564       5.60163290       0.09863450       0.17871546       0.09816123       0.51697803      -0.21315657      -0.34811929
C       -6.85117767      -4.04191381       6.19492903       0.61672110      -1.10256872       0.96821821       0.07080576      -0.92824829      -0.45198908
H       -6.26149896      -5.93715334       4.98222108      -0.06535969      -0.06187763       0.19093280      -0.61235201       0.59586382       0.57950836
H       -5.95866585      -4.41599418       4.22586177      -0.01090018       0.38247433      -0.09602258      -0.25459361      -0.12658837       0.34762120
C       -7.50164465      -2.72952051       5.66023125      -0.91286838      -0.58557893       0.07087661      -0.15501933      -1.58740091      -0.63094896
H       -6.21254135      -3.80000794       7.01528896       0.00923793      -0.12038643      -0.03079361       0.50193262       0.62174976       0.65557039
H       -7.57923654      -4.69820180       6.67792601       0.10375770       0.32104659      -0.13004221      -0.35825986       0.20075864      -0.30781168
O       -8.08313852      -1.96033295       6.69085617       0.02208806       0.32055668       0.41475790      -2.75872326      -0.68611455      -0.01585558
H       -8.19734660      -2.94683033       4.80020486      -0.00142100       0.36597960       0.09226256       0.40136540       0.23808306       1.03303206
H       -6.76767479      -2.08531222       5.25606318      -0.19415849       0.11181827       0.08312922       1.12302971       0.33258593      -0.63542944
H       -9.07356167      -2.21531383       6.74144251       0.33822999      -0.28542881      -0.02694135       2.05493808       0.54121095       0.43659997
H       -4.30163463      -5.84691740       3.65839839      -0.02957508       0.03141587      -0.04933243       0.23881368      -0.20905720      -0.08929811
H       -4.33986266      -7.03835891       4.91597507      -0.15692022      -0.10224304      -0.14335004       0.56278521       0.30646026       0.00181700
H       -2.80452185      -6.10882419       4.51645853       0.09331880      -0.05567258      -0.14403268      -0.34537765      -0.14491220       0.47328991
C       24.46197326      19.80646068      16.05810184      -0.29871327       0.51747617       0.02579725       0.75188828      -1.44715333      -2.07028437
C       24.71398042      19.99114923      17.52061616       1.23714783      -0.13299882      -0.36655060      -1.85949969       0.22429752       0.63985127
C       24.11486001      18.30270729      15.72079091       0.01097980       1.18365031       0.70563530      -1.68386126       2.45546603      -2.60968924
H       25.34629620      20.17108174      15.47505701       0.01570636      -0.28968186       0.21177520      -0.57765293      -0.57757670       0.39066312
H       23.61872645      20.35924680      15.64822456      -0.16744628       0.16003037      -0.21756176       0.01524440       0.39436179       0.48957789
C       23.37052546      19.88215951      18.27876207       0.18785680      -0.02540061       0.34693439      -0.35832807       0.52308267      -0.08940070
H       25.03175165      21.02075638      17.71274743       0.14534623       0.26791476      -0.00241463       0.70716220      -0.44330186       0.10671778
H       25.34735173      19.17657149      17.87742217      -0.13544864       0.13040839       0.02344347       0.46289188       0.75185007       0.03129100
C       23.55058489      20.02677962      19.76341615       0.95140656      -0.21223285      -0.71074702       0.17109387       1.28872073       0.90299070
H       22.87551921      18.93047948      18.09680420      -0.08706218       0.40640362       0.04684667       0.04280038       0.22295740      -0.30742759
H       22.70143532      20.70301125      17.94441758       0.39137707      -0.16208463      -0.18369277       0.35931796      -0.76980197       0.00840550
O       22.33522282      19.90726161      20.53139945       1.19088623       0.15577684      -0.59391911       0.94047874       0.06281603      -0.38272190
H       24.07160907      21.00766017      19.98664202      -0.12128552       0.00403083       0.09604773      -0.60551137      -0.80132079      -0.14751831
H       24.20022039      19.26926168      20.15621855       0.36937468      -0.07034285      -0.01316652       0.43064657      -0.47295880       0.12260614
H       21.71832658      20.55555082      20.17790192       0.14698427      -0.14121541      -0.30708074      -0.36105949      -0.05885255      -0.06537320
H       23.08405897      18.09648187      15.98072972       0.18151696      -0.02467131      -0.07977085      -0.37304038       0.16747776      -0.09012871
H       24.61896135      17.57465513      16.17931575      -0.32937645       0.20053050      -0.30293453       2.56829309      -2.34458256       2.49305987
H       24.24122762      17.96336150      14.66223904       0.04617361      -0.13998753       0.27222037      -0.28268629       0.99202305       0.46276078
C        6.17924571       9.61925085      15.15179447      -0.04223474      -0.47554737      -0.31830083       0.72311479       1.02579892       2.22782040
C        6.43212123       8.15223365      14.81094966       0.06252595       0.49673501       0.22237122       0.08972672      -0.27754575       1.14947796
C        7.34200849      10.57108108      14.87705356      -0.34979582       0.26184350       0.74065708       1.16786635      -0.22231725       0.66478765
H        5.99538405       9.64549851      16.27927142      -0.02175857       0.19859597      -0.04649049      -0.01555210       0.24218152      -1.36299407
H        5.33755912      10.13351145      14.68705408      -0.06370579      -0.09343655      -0.08266393      -0.49174249      -0.98263150      -0.16058934
C        5.17597091       7.33632559      15.13459750       0.13562066      -0.40946732      -0.42524486      -0.73376608      -0.27461404       1.53776658
H        7.44729338       7.75819925      15.20751290      -0.15094645      -0.00799245      -0.18089918      -1.94054627       0.60796297      -0.24565795
H        6.49465588       8.08345148      13.77939748       0.02507671       0.07706853      -0.06629994       0.57598633      -0.09865935      -2.17355466
C        4.89043942       7.11717608      16.66532923      -1.24294112       0.29047064      -0.31890655       2.65511799      -0.62352312      -0.50688332
H        5.14565507       6.29389681      14.77516048       0.21293301      -0.24280308       0.06189315       0.50499690       0.58742696      -0.17365533
H        4.31482119       7.82520387      14.64794717       0.00355415       0.06098187       0.08107151       0.41725579      -0.14574683       0.36682665
O        3.92098650       6.13322904      16.84050600      -0.73732187       1.07576149      -1.27672516      -1.14859033      -0.68372446       0.32526460
H        4.66983892       7.99331185      17.28577160       0.07374855      -0.12197496       0.09113953      -0.06629038      -0.11611490      -0.40340725
H        5.84254505       6.60894776      17.05333566       0.14660079      -0.18837898       0.04590510      -0.72292203       1.29724693      -0.21372120
H        4.39211767       5.29253766      16.63688676      -0.14148911      -0.18694371      -0.07477431      -0.48107955       0.25900844       0.10764517
H        8.08754267      10.57680336      15.67095715       0.13495689      -0.09262773       0.09760170      -0.13703495      -0.19422708       0.30082449
H        7.12693441      11.61894122      14.72824415      -0.09595774       0.20109334      -0.05884952      -0.70479518      -0.01335976       0.12930962
H        7.94991604      10.31446953      14.03877555       0.03375488      -0.03606370       0.13727008       0.05473773      -0.58900481      -0.96266073
C       -2.45545022      20.77159770       9.63485030      -0.53979731      -0.32849779      -0.12064901      -0.88522983      -0.71902996       0.77111787
C       -3.86790597      21.22005439       9.20469339      -0.12046089      -0.03064070      -0.03879122       1.31369138      -1.09670115       0.96164751
C       -1.36577139      21.82118373       9.55920533      -0.66896509       0.09403030      -0.69393118      -1.42036963      -0.02037004      -0.40244564
H       -2.24164637      19.90208572       9.00912677      -0.07780568       0.07195180       0.16730368       0.27861750       0.10725164       0.07186399
H       -2.53164130      20.34436219      10.66484629       0.08861575      -0.07728725      -0.01063457       0.06339216       0.45377678      -0.62373435
C       -4.86483205      20.09826360       9.55296221      -0.72666725      -0.02709082      -0.23870196       0.54732430       0.95262134      -0.18017259
H       -3.86162412      21.46177248       8.16068529       0.18952093       0.01615855      -0.19509874      -0.17188855      -0.01862701      -0.61842507
H       -4.13739254      22.12246560       9.72534950      -0.12903295      -0.12344098       0.36197471      -0.16516687       0.43204382       0.35374701
C       -6.21917629      20.78657690       9.61009478       0.78855899      -0.14378589       0.37136798      -1.66968787      -0.56313443       0.33515507
H       -4.62109789      19.71331356      10.58294914      -0.10720670      -0.17992822       0.05467012      -0.38350102       0.27223903      -1.00144398
H       -4.74515280      19.26329239       8.82766259       0.11200409       0.19091991       0.06764271      -0.46288642       0.52306968       0.45909601
O       -6.58694479      21.65233809       8.48301856       0.49231019       0.48475418       0.22368254       0.94113356      -0.95311594       1.15766835
H       -6.23897700      21.44243761      10.49936130      -0.19445578       0.04127675       0.05777541       0.12408525      -0.30262321      -0.36711049
H       -7.01334582      20.00386025       9.78131076      -0.39826405       0.00983184       0.15620037       0.49908262       0.91759461      -0.31244192
H       -7.20767046      21.13336437       7.96797824      -0.02520667       0.16359658      -0.32708635      -0.21738145      -0.12555104      -0.62124479
H       -1.79803496      22.78699520       9.84324004       0.05337803       0.09979954       0.12161267       0.44626403      -0.12481809       0.35996631
H       -1.15691436      21.91550671       8.51021588       0.13216324       0.08807380      -0.32791562       0.83418095       0.23653975      -0.39777681
H       -0.52376459      21.52182412      10.15878112       0.03075761       0.03593150       0.09605223       0.44305784       0.28054315      -0.01880508
C       11.90427161      13.30918553       6.04147017      -0.18992443       0.44971091      -0.40656081       0.23244388      -0.20571275      -1.54622161
C       12.32556381      12.07011191       5.24298041      -0.37755585       0.38508255      -0.58556658      -1.31054497       0.35782230      -1.41714609
C       11.74555661      14.49463758       5.05679352      -0.44500897       0.10721174       0.34858466      -0.62349218       0.90323770       2.31520510
H       12.73136055      13.55580131       6.68775203       0.12647967       0.24939991      -0.03809294       0.11877033       0.11513326       0.47576529
H       11.04435719      13.08294257       6.67412757      -0.04099598      -0.16540326       0.14765220      -0.05041452       0.34546322      -0.40331668
C       12.21104980      10.78185153       6.00649997       0.65956508      -0.64146955       0.91577456      -0.47471678       0.22749335      -0.96882939
H       13.33554771      12.19934688       4.85253117       0.00059497       0.03996915      -0.10384722       0.05052132       0.03377063       0.19478036
H       11.68538756      11.96484543       4.30433270       0.17669139       0.11883442       0.13854564       0.64818478       0.30004269       1.10960710
C       12.95063976       9.68623790       5.28732508      -0.51041936      -0.47748066       0.81374225      -2.37938023      -2.68144488      -0.25012016
H       11.11102716      10.56087850       6.15276085       0.39919028       0.04688970      -0.21829533       1.40090013      -0.17344315      -0.00339601
H       12.69546537      10.92818477       6.94115497       0.18406501       0.18418802      -0.09304452       0.05403396      -0.11349428       1.07296610
O       12.23614285       9.17918549       4.10204430      -0.69040307       0.41548512       1.03294436       1.08299875       0.75354880       0.57698870
H       12.98797838       8.80282584       5.93356432      -0.10962971       0.33114109       0.38605188       0.30609602       0.20633654       0.17539629
H       13.92586299       9.85865908       4.92337795      -0.13181695       0.14128650       0.07888164       1.02598691       0.83439744      -0.00136316
H       11.29233323       9.27182177       4.24439280       0.18495884      -0.18821486      -0.02099206      -0.66763890      -0.23361748       0.00608487
H       11.59668605      15.41868610       5.69621878       0.16780604      -0.15722747      -0.35661352      -0.17556600      -0.83647805      -0.94723636
H       10.92444726      14.40969694       4.32862301       0.08576388      -0.06409064      -0.34572219       0.49649370      -0.20644720       0.33530661
H       12.69578220      14.66671157       4.59553620      -0.12038235      -0.24823339       0.01343363       0.38986176      -0.02335985      -0.68627411
C       10.12402184      26.83915800      24.15389719      -0.73206503       0.56920353      -0.38665371      -0.27283049      -1.72928095       0.32438147
C        9.18676783      27.68920891      24.94680946      -0.58162047       0.15642342      -0.84392212       0.57963610       0.36365438       2.24944043
C        9.46383877      25.50376535      23.71202790       0.66051873       0.17419557      -0.09492693      -0.39951527       0.44560030      -1.01199317
H       11.09514001      26.66150484      24.61272925      -0.17840529      -0.11764235       0.02057458      -0.15092959      -0.05392806       0.37210584
H       10.32525882      27.46125678      23.34493391      -0.02863762      -0.05824699       0.05288306       0.67999136       0.67933196      -1.97084939
C        9.81055688      29.02278979      25.41233596       0.59540046      -0.16604746       0.15299224       1.37177980      -1.66479719       0.27350205
H        8.82892794      27.16866613      25.85820744      -0.05837589      -0.06436618       0.22948996      -0.05610217       0.12569992      -0.51726449
H        8.34869571      27.89915545      24.33318538       0.31019439       0.07343965      -0.01514283      -0.99150336       0.15425062      -0.50038677
C        8.83300450      30.06338479      25.76948530       0.24096732      -0.32723730       0.30492991       0.01306489       0.05644229       1.46143913
H       10.51571646      29.39873325      24.68341574       0.21799958       0.13887174      -0.01204982      -0.00001938       0.20998144      -0.56322181
H       10.48716160      28.86168434      26.29324597       0.27687276       0.02890521       0.07056302      -0.78551006      -0.08331998      -0.53438473
O        9.56388567      31.07333259      26.40628064      -0.38117590       0.26824859      -0.07618667      -0.58932590       2.45581579       2.39966702
H        8.08864488      29.69501345      26.46740607       0.18238723      -0.32343357      -0.04373333      -0.23180683      -0.23755747      -0.13527906
H        8.37229200      30.52587349      24.95069771      -0.14086372      -0.02582713       0.06812648      -1.03257132       0.18000764      -1.58113647
H        8.95757879      31.63835572      26.99893861      -0.10585416       0.15218453       0.09478688       0.93548906      -1.01141858      -1.56280303
H       10.02804897      24.90678939      22.98494319       0.03984141       0.20732042       0.05811945       0.34812808       0.40832248       0.17284748
H        8.49822198      25.70823394      23.15671473       0.27865210       0.02533652       0.06893862       0.83955836      -0.26396358       1.03322029
H        9.31715129      24.82959170      24.55108397      -0.05557417       0.07511863      -0.11179933      -0.37579322       0.15327018       0.16868761
C       11.35038417      19.51439327      -2.41374275      -0.20721741      -0.68375662      -0.96937095      -1.30746067      -1.42529213       0.80257106
C       10.31210947      19.50806844      -3.52863790       0.25930545      -0.92679183      -0.84852197       1.11727166       0.17923771       0.57517308
C       10.63814529      19.67675192      -1.07523549       0.37483563       0.44948498      -0.71469595      -0.56197816      -0.80208093       0.03126063
H       12.00426099      20.31015790      -2.57598701      -0.25515469       0.24663015      -0.05401853       1.40909731       0.94549131      -0.26403126
H       11.84905113      18.53353368      -2.37808907       0.26646228       0.20333241       0.03075732       0.26397970       0.48028460      -0.17676513
C       10.89330121      19.20119308      -4.88809165       0.22902968      -0.62768290      -0.04507594       0.78221202       0.39938504      -0.70180750
H        9.86879293      20.48762230      -3.49225148      -0.00282369      -0.12787509      -0.08576060      -0.46901333       0.42093468      -0.36545426
H        9.55135987      18.78707033      -3.26797193      -0.15053695       0.00599431      -0.10647706      -0.23169306      -0.14679195      -0.17784522
C        9.81535853      19.23611380      -5.94435519      -0.42326694       0.09906789      -0.03496729       0.04939467      -0.13013375      -0.67305952