1280
Lattice="23.1280031453546 0.0 0.0 0.0 23.1280031453546 0.0 0.0 0.0 23.1280031453546" Properties=species:S:1:pos:R:3:momenta:R:3:forces:R:3 mol_liquid.pdb=T energy=-638186.0 free_energy=-638186.0 stress="0.004348525311797857 0.0014299110043793917 -0.0022419756278395653 0.0014299110043793917 0.002802229719236493 0.0007436420419253409 -0.0022419756278395653 0.0007436420419253409 0.0009493791731074452" pbc="T T T"
C       31.07023398       3.01893983      -4.76845610      -0.33634817       0.53712115      -0.67603984      -1.55337238      -0.28855649      -1.45427740
N       31.49481591       4.12465595      -5.55561228      -0.33295602       0.11395404       0.53986281      -0.43522632       0.82974201       1.48963606
C       30.60114616       1.78462332      -5.38074904       0.67441911      -0.21735509       0.72302628       1.91540527       1.61766243      -0.11881402
C       30.89329168       3.12133087      -3.39409046       0.79368455       0.37300358       0.16221644       0.52270216       0.22621003       2.14152265
C       31.38902678       5.44125062      -4.83932198      -0.90594092      -0.15516350       0.16538540      -0.46796325      -1.06996655      -0.59584624
C       31.26606805       4.19286852      -7.00568232       0.16050656       0.68403042      -0.36504742      -2.81361246      -0.33332318       1.76075196
H       30.35087145       5.72156248      -4.51990130       0.16495272      -0.29417046      -0.07876970       1.09645176      -0.60017073       0.09895248
H       31.71849919       6.19956113      -5.48855930       0.30780159      -0.30600524       0.17724596       0.15382372       0.81796229      -1.19972777
H       32.14507843       5.52457102      -4.08925783      -0.16690236      -0.10321431       0.17191935      -0.06394343      -0.37238973       1.00538135
H       31.81805200       3.44424733      -7.46284565       0.04084682      -0.05389063      -0.13677357       1.13986742      -0.91617143      -1.15649104
H       31.45386308       5.18091066      -7.34413550      -0.23416218       0.16621655       0.02508526       0.73716211       0.56239516      -0.37026733
H       30.17874600       4.01083878      -7.28841546      -0.20306002       0.01780166      -0.24145449       0.96142948       0.05427757       0.42928907
C       30.17655811       0.73409843      -4.58476384       1.06695304       0.41116202      -0.78034484      -0.05861809       0.87421215      -0.80422127
H       30.81965382       1.72953588      -6.47382774       0.23829168      -0.00799706       0.04425187      -0.74036884      -0.43112206       1.03265607
C       30.08230584       0.84177404      -3.20180855       0.24249201      -0.73728915      -0.56207850       0.03766306       0.46067673      -0.23400158
H       29.85128883      -0.14007405      -5.10009496      -0.06712909       0.00360442       0.03139922      -0.18813401      -0.63919187      -0.04179905
C       30.47828077       2.02303276      -2.59394752      -0.26352507       0.96034934      -0.93089885      -0.03429777       0.66100764       0.57183707
H       29.59258111       0.04647954      -2.69026307      -0.21870543      -0.09701980      -0.14611935       0.04919545      -0.45532802       0.60882574
H       30.44678819       2.15728012      -1.45812531      -0.04548590       0.04848298       0.23067851      -0.05695838      -0.19795305      -1.92275465
H       31.12036595       4.03917511      -2.79613613       0.06173161       0.09246039       0.09059587      -0.02707500      -0.96307623      -1.04604924
C       13.86812368      15.51032849      15.88305335      -0.07445567       0.24675276       0.12617952       0.47116700       0.86447603      -1.46234608
N       14.10232543      14.15948051      15.65302664      -0.60986706      -0.24934531      -1.66025509      -0.09423227      -0.45996240       0.22025831
C       14.57941647      16.53235787      15.05343651       0.19942585      -0.44636914       0.13171563      -0.51745707      -2.34602046       1.47291374
C       12.93988243      15.98081969      16.81002151       0.07109806      -0.67974213      -0.15594959      -0.58425903       0.05511130       1.51362514
C       13.23376939      13.08988791      16.30341849       0.75766340       0.47174414      -1.07410185       1.85848212       0.68344289      -1.16599154
C       15.03722296      13.75638692      14.58398197      -0.21565203      -0.68450724      -0.25080032      -0.56694192      -0.08458611      -0.00204009
H       13.39394345      13.13060820      17.37227165      -0.23619753      -0.11575756      -0.05948318       0.11383972      -0.37129623       0.22141744
H       13.49545850      12.08686894      15.86067723       0.09297658       0.00150556      -0.01978303      -0.25631604       1.29125333       0.72744310
H       12.21581288      13.32459209      16.11532123      -0.14964408       0.05245731      -0.08648081      -0.99602449      -0.00996478      -0.29209721
H       14.61034189      14.07660266      13.56935752       0.27869611      -0.04613954       0.14227441       0.93451494      -0.56636184       1.20051312
H       15.10452349      12.64824388      14.64866984      -0.01287644      -0.20142681       0.20106240       0.03177381       0.85367382      -0.41715074
H       16.07067059      14.17091787      14.75274322       0.01308965       0.07780895       0.14249101      -1.10127902      -0.29876536      -0.28021157
C       14.46179631      17.85726638      15.38209133      -0.65489955      -0.22690880      -0.69638889      -1.66436124       0.08757155       0.27617049
H       15.20693663      16.07694314      14.27461030       0.04705350       0.09813746      -0.06916590      -0.13866317       1.02090311       0.41829318
C       13.47144815      18.30433671      16.30740350       0.11503257       0.45891211      -0.70985267       0.80279225      -1.30804145      -0.62147182
H       14.97068970      18.64102795      14.88182288       0.33210441       0.14232881      -0.02153824       0.64002907       0.29295388      -0.66250682
C       12.74669841      17.38309870      17.01771080      -1.47140187      -0.50798164      -0.63897500       0.58298707      -1.16580427      -0.64965320
H       13.28202359      19.34029147      16.42529191      -0.29443906      -0.07745271      -0.03464969      -0.05122782       0.61874771       0.01721649
H       12.05323048      17.77190888      17.73296914      -0.08959123       0.10157147       0.20883735      -0.49696076      -0.26168033       0.34935549
H       12.39351527      15.25597396      17.48288244      -0.04418415       0.31403591      -0.01787668       0.63419068       0.97863227      -1.04663360
C        5.39417348      23.98775923       7.59580603       1.02967222       0.59073932       0.65882778       0.69182968      -0.63548362      -0.36343634
N        5.59714472      22.90784457       6.76413163      -0.12505518       0.35422400      -0.74138333       0.91566026      -0.53904480      -0.33396727
C        5.13993665      25.22521772       6.97267380      -0.08476110       0.57249991       0.33425539       0.65233272      -0.06923158       0.74531436
C        5.61395417      23.88519330       8.98239225       0.17852498      -0.29337297      -0.73934075      -0.33910769       0.32682660      -1.62904418
C        6.01067586      21.63916879       7.33374866       0.76042033       0.05618200       0.47907405       0.34294534       0.55779719       0.96542037
C        5.02117340      22.87091652       5.40802576      -0.24330636       0.02775556      -0.04266440       0.50282431       0.12026061       0.58492172
H        6.00541469      20.91687685       6.54104109      -0.09921256       0.03119951       0.16313766      -0.12000099      -0.55392593       0.03396474
H        5.34722278      21.39931351       8.17426244      -0.00502364      -0.01117167       0.02972269      -0.08455491      -0.52768868      -0.47126120
H        7.01818391      21.62042439       7.80735063      -0.13375051      -0.00256101       0.14010319      -0.36064678       0.37772107      -0.54890490
H        4.08119376      23.33348918       5.59076574       0.05750965      -0.09433906       0.09470039      -0.94683540       0.62853450      -0.87558770
H        4.79343219      21.82075383       5.20613203       0.33425613       0.11057630      -0.18821106       0.31026039       0.56779814      -0.36358404
H        5.59666017      23.38846270       4.56966088       0.27431781      -0.06998478      -0.16525380      -0.53375405      -0.84116101       1.23802936
C        4.93201733      26.33723007       7.75527308      -0.23013640       0.27961133       0.25919081      -0.52177489      -1.06193018       1.81329679
H        5.34928822      25.18507964       5.93009779       0.00265274       0.18305289       0.09849933      -0.41394401       0.69700813      -0.62945282
C        4.90442872      26.13997171       9.16160462      -0.04145566       0.55233263      -1.05941265       0.58593965       1.93025732      -0.15849048
H        4.77213235      27.34409724       7.45836535      -0.09730684      -0.07286062       0.03721726      -0.20371519       0.42975879      -0.84284371
C        5.42672617      25.01380205       9.72840905       0.29432535       1.36068271       0.21145857      -0.63930809      -0.57286286       1.99559498
H        4.64777728      26.96061271       9.83721880      -0.07924130       0.06819555       0.22521643       0.18268242      -0.10281937      -0.47238523
H        5.57738567      24.94001493      10.83397837       0.20255739       0.02100584      -0.22715127      -0.25564909       0.22076774      -1.16110051
H        5.86382022      22.95996203       9.41666942      -0.03815973      -0.19113918       0.08772918       0.41674897      -0.71119481       0.48345116
C       26.44718309      17.07088168       4.18764873      -0.08759825      -0.25065686       0.19111320       0.32928512      -1.31892693       0.86201560
N       26.50349149      15.89027617       3.37665406      -0.59248488       0.28198242       0.36366595       1.02184665       1.78010607       0.50778109
C       27.28643954      18.17199867       4.04079017       0.76153122      -0.22853542      -1.21342076      -1.45909762       0.57949924       1.57517052
C       25.68706767      16.99671358       5.38223467      -0.94035193      -0.17772662      -0.91564011      -0.50024611      -0.88313311      -1.88505864
C       27.58194007      15.75760137       2.40911577      -0.48850519      -0.62965375      -0.07008010       0.00907791       1.03100860      -0.27610809
C       25.30279405      15.15136902       3.03586068       0.36387970       0.18338922      -0.16692742       0.70245826       0.10268036       1.08520317
H       28.61320351      15.60638205       2.78204321      -0.05994848       0.05060972      -0.03494006      -0.71651232       0.16229716       0.37828246
H       27.63602024      16.56435970       1.65969968       0.10046567       0.01415641       0.20828170      -0.06345265       0.22785044       0.44072932
H       27.33761365      14.93283330       1.79807060      -0.00317670      -0.36986624      -0.08105050      -0.13385648      -1.26891375      -0.54036599
H       25.57348145      14.10537829       3.16636397      -0.21989976       0.10790876      -0.03445050      -0.61274529      -0.33767217       0.22312096
H       25.11428116      15.27421920       2.00407530      -0.14482321       0.39666737      -0.57904761      -0.65204751       0.29191810      -1.27547479
H       24.43910907      15.46817240       3.63413508       0.24789405      -0.16923026       0.19987855       0.46571076      -0.30046737      -0.29969484
C       27.14430585      19.27734429       4.93709652       0.20957454       0.01378313       0.27532373      -1.10550499      -1.86591887       1.54034603
H       28.02657074      18.15177932       3.30255258      -0.02129271       0.08955792      -0.07818644       0.83581889       0.40971363      -1.02809024
C       26.28487709      19.19700251       6.10405181      -0.14352147      -0.07212587       0.34843743       0.60404277      -0.71167982      -1.81847382
H       27.82132403      20.09151882       4.81497248      -0.19534080      -0.12540870      -0.05790308       0.10261863       0.31015855      -0.14341649
C       25.56382222      17.98218030       6.29350767       0.31477160      -0.92952672       0.04979089       2.58599186       2.29545236      -2.19748616
H       26.20428233      20.00463867       6.82549556       0.18014091       0.34345671       0.30296251       0.16083705      -0.14577927      -0.27026305
H       25.01168830      17.71533711       7.09433212       0.01341853       0.09190105      -0.03763521      -1.72642386      -0.00756145       2.75502181
H       25.11577450      16.10599896       5.58250199       0.26403673       0.06646018       0.02074971       0.07143389      -0.18257277      -0.12280678
C       21.80567864       8.47341323      28.14097186       0.88258960      -0.27016372       0.85192105       0.51001060      -0.22861716       0.01605518
N       22.07546192       9.20668465      29.30144921       0.83672438       0.12387501      -0.66125029      -0.35747102       0.04736727       0.77405465
C       20.80924642       7.47380079      28.14835458      -0.29654054      -0.09459506      -0.40142446      -0.43229699       0.94139230       2.43556690
C       22.55021798       8.67014668      26.94449077      -0.06996502      -0.12148989      -0.16111163      -0.41662934      -1.52760768       1.13504505
C       23.41111899       9.72132326      29.52611838       0.33494464      -0.57616188       0.47858316       0.39227122      -1.87553263      -1.44078994
C       21.47968503       8.81263987      30.57970609       0.47415450       0.24885086       0.08106633      -0.92034066      -1.53688359      -1.44919753
H       23.64857545      10.33493611      28.69257418      -0.00837322      -0.05197768      -0.27207802       0.55106109       0.86013597      -0.28617179
H       24.17417146       8.89908619      29.52971475      -0.09805503       0.10495787      -0.14434628      -0.48903647       0.41018766       0.06052238
H       23.47776995      10.20965446      30.45902699      -0.10508606      -0.08498741       0.14013520      -0.00235167       0.79053551       0.76684368
H       22.02687472       7.90823721      31.05013586      -0.33472103       0.13517936       0.08423192      -1.28496945       0.90439546      -0.78117466
H       20.34511936       8.75467288      30.43346503       0.22212758       0.06036094       0.00769917       1.72916782      -0.50810891       0.61623603
H       21.65683784       9.62036873      31.21305327       0.29753371      -0.20057694       0.16442903       0.12401354       1.28246880       1.28101218
C       20.66381414       6.61535659      27.11843067       0.72594371       0.41574134       0.01013398      -0.94561249      -0.55623823      -0.62126201
H       20.10537143       7.32629562      29.03186762       0.17540268      -0.18323605      -0.19623043       1.29413402       0.52076298      -1.49061966
C       21.49948494       6.62932492      26.02236871      -0.55965035      -0.30244568       0.40351309       0.12250097       0.73655885      -0.04891946
H       19.77600192       6.01876790      27.18557198      -0.29635236      -0.22829744      -0.17493828       0.01830624      -0.75193501      -0.24993511
C       22.41732541       7.66045010      25.96274112      -1.23552770      -0.32154104      -0.69293822       1.26913953       1.45013666      -1.21095502
H       21.38947546       5.96211398      25.19383989      -0.09666790      -0.06279325       0.09046678      -0.02942604      -0.21872130      -0.07758640
H       23.05103377       7.76324996      25.04398257       0.01442331      -0.15106370      -0.26206477      -0.77398705      -0.19179390       1.10343111
H       23.30928125       9.45068348      26.94502541       0.21496885      -0.21912711      -0.05394696      -0.23966300      -0.36443460      -0.53201151
C       13.66696589       7.16052870       9.32197059      -0.15263897      -0.24308595       1.32246410       0.25139353      -0.19879740      -0.20904307
N       14.56981591       6.69366998      10.32341984       0.34179435       0.06433498       0.16529509      -0.84059429       0.70459569      -1.27474618
C       12.63263312       8.12826089       9.56348635       0.08541324       0.66525727       0.59258929       2.46655488      -1.64580953       0.53178155
C       13.81008879       6.73122805       7.98822030      -0.37957786       0.38379669      -0.08867777      -0.54321647       0.70478404      -0.22470027
C       15.34893401       5.49908642      10.06607977      -0.01906463       0.20825038      -0.45413085       1.41796815       1.32214177      -0.93462700
C       14.19130378       6.83206453      11.67941603      -0.28515164       0.79972690       0.52695936      -1.00697446      -0.51742566       1.11069250
H       14.78403004       4.60553806       9.92978462       0.23053632       0.26342299       0.19420829      -0.71656692      -0.65752369      -0.36752242
H       16.04291685       5.28181218      10.89472543       0.16783281       0.18613065       0.09068128      -0.27402040       0.51094937      -0.27952480
H       15.94257334       5.74767123       9.14980123      -0.07432570       0.14664689      -0.29416432      -0.27327836      -0.83647633       0.80707020
H       13.62279899       5.91251239      11.92769835       0.28152082      -0.13904011       0.10345329       0.45938903       0.20046631       0.70630133
H       13.47324648       7.63617952      11.84691518      -0.26875437      -0.16608828      -0.07713562       0.53455102      -0.01851767      -0.04829469
H       15.07594886       6.99724363      12.31803786       0.06702835       0.03876208       0.10347182      -0.51049322      -0.26905969      -0.15000126
C       11.92887047       8.67376972       8.56124116      -0.14350880       1.01555848       0.26979292      -1.09764814       0.25878489      -0.48853010
H       12.47842213       8.47686959      10.53446026      -0.06489036      -0.02843206      -0.13379898      -0.22167210       0.44233388       1.23480988
C       12.09965897       8.27077543       7.25976428      -0.43624520       0.77825937      -0.80001458       1.04995966       0.06203429      -0.16731375
H       11.18482046       9.41083537       8.80226084       0.07293686       0.00738211       0.04220801      -0.19453083       0.20014116      -0.02165862
C       13.07931252       7.34114745       6.95598703       1.50584730      -0.46217331       0.07411568      -0.54249471       0.30712342       2.05625129
H       11.56779591       8.81144494       6.53420069       0.30486454       0.00629630      -0.06225623      -0.49010879       0.17269811      -1.05122340
H       13.24568664       7.07690549       5.96125855       0.02505912       0.13551086       0.03633643       0.28201655      -0.57648140      -1.40622640
H       14.42672154       5.91674184       7.68701889       0.17812749      -0.13646627       0.03612556       0.58983439      -0.24551401       0.20180064
C       11.75133481       0.39446983      17.64708300      -0.21017497       0.40690359      -0.08168065      -0.58591670      -0.92895699       1.15955234
N       11.03706444      -0.80555908      18.18118500       0.11421884       0.47617449      -0.28695542       1.04194117       0.57083780       0.17122644
C       10.98339320       1.54916424      17.44216588       0.02035187       0.91832411      -0.29567173       0.40752840      -0.50105011      -0.74944401
C       13.16756637       0.46262483      17.42537968      -0.22526527       0.22615898      -0.07446223      -1.02519822      -2.27218962       0.63263220
C       11.90142322      -1.94990973      18.46086379      -0.44419395       0.26149585       0.88833582       1.05591142       0.45913991      -0.75736099
C       10.35310336      -0.44698367      19.41331325      -0.22455831      -0.41254053       1.17796042       0.71942151       2.74873400       0.67108881
H       12.68234131      -1.71509038      19.24028279      -0.01457909       0.27625983      -0.22338819      -0.52959490      -0.18000920      -0.81028318
H       12.35087560      -2.28289580      17.50930511       0.10888962      -0.04797382       0.33458340       0.15210527       0.31670111       0.54459840
H       11.35328481      -2.80499587      18.81214767      -0.06749089      -0.16776443       0.06738574      -0.52367473      -0.03475389       0.24413948
H       11.04387815      -0.30568319      20.26146779      -0.06337554       0.11579188       0.12601648       0.46825218       0.16801235      -0.46277040
H        9.66283196      -1.06324768      19.90641782       0.08067214       0.15054270       0.03213551      -1.18695140      -1.58512127      -0.58859277
H        9.86781879       0.53244788      19.27805654      -0.31988494       0.14696909       0.21295337       0.03297751      -0.62740588       0.20175147
C       11.60020952       2.69416225      16.89587857      -0.36157209      -0.26960985       0.13873383      -1.83036888       0.56422436       0.21241534
H        9.88088793       1.54097631      17.58501708      -0.18195593       0.08850647      -0.21652018       1.21429741      -0.03681336      -0.11764465
C       12.94305581       2.79012444      16.64768308       0.21552635      -0.33156222      -0.64467283       0.20058602      -3.01859426       1.05063355
H       10.87960230       3.51406020      16.69008147      -0.09145701       0.13099731       0.11838570       0.87529027      -0.35574743       0.13375379
C       13.70250770       1.59495965      16.96347935      -0.56280661       0.77761251       0.57760338       2.23721266       3.32406759      -2.36402988
H       13.37842778       3.66880650      16.27376446      -0.02625500      -0.04386097       0.16481123       0.62996233       0.79813319      -0.44688937
H       14.80987049       1.56063053      16.66731522      -0.03390192      -0.08171588       0.02358827      -1.69796801       0.29109913       0.76293212
H       13.92099209      -0.35660793      17.53996533      -0.01392267       0.03723975      -0.26218218      -1.44333136       0.48083496       0.13977052
C        6.81848180      10.57995258      22.00385088      -0.34239073      -0.31417236      -0.19013313      -0.10462444      -0.56393611       0.06184384
N        5.98917457      11.28271053      22.90827459      -1.00084726      -0.54492049      -0.39980467       0.07826442       0.62383342      -0.28572690
C        8.21055958      10.79752443      22.03179565       0.63709734       1.24058764      -1.06657324      -0.08557384       0.11655145      -0.81911260
C        6.30645545       9.59670159      21.10131456       0.48314299       0.46921626       0.14148471       1.34289646       1.69193339       0.85664475
C        4.56042178      11.02444991      22.80743822       0.11138407      -0.37672592       0.45748285       0.10973954      -1.72373903       0.27039099
C        6.29629049      12.74143938      23.10461070      -0.89813738      -0.71314000       0.26042225       0.88239634      -1.11594903      -0.07843353
H        4.29332363       9.94339647      23.03875508       0.03421039      -0.33700583      -0.30319293       0.47764796       1.43175554       0.28606099
H        4.12731959      11.13719936      21.83714751       0.08544132       0.03168501      -0.16818038      -0.01807928       0.49463850      -1.16052735
H        4.03101675      11.69824567      23.44212409       0.10627038      -0.27335787      -0.06459590      -0.32221386       0.11262108       0.72100675
H        7.31198514      12.91708829      23.53896034       0.05067075       0.08809939      -0.02591567      -0.99415529      -0.47769240       0.07715228
H        5.52398244      13.12340875      23.77384571      -0.16879578       0.02103321       0.04127123       0.30960044       0.24254200      -0.25968513
H        6.37377009      13.24968831      22.14083292      -0.03940398       0.16065118      -0.04369108      -0.61381000       0.20195998       0.01546334
C        8.99658582      10.06345756      21.16194850      -0.04421729       0.17960796       0.04477284       1.84289908      -0.95101470      -0.90930825
H        8.67182009      11.61457740      22.59644826      -0.18388450      -0.05968419       0.14747466      -0.29590932      -0.58162886      -0.01692049
C        8.48937918       9.08089474      20.27541669       0.32305933       0.40561487      -0.09961039      -0.46298563       1.37265551       1.21541476
H       10.11681923      10.19918789      21.08199897      -0.36371236       0.23120401      -0.27936388      -1.46807778       0.07923149       0.52654219
C        7.12083895       8.93522746      20.20842461       0.22873026      -0.12488849       0.15941763       0.38052273      -0.32169068       0.39985895
H        9.11367667       8.44917001      19.70148714      -0.21915486      -0.15486428       0.05663287       0.66552770      -0.09826288      -0.54513407
H        6.69934521       8.25969599      19.49220536       0.04752967       0.04475833       0.00808040      -0.24325183      -0.30204976      -0.11627001
H        5.28662916       9.40088552      21.08943457       0.03978247      -0.25345724       0.27494269      -1.59380281      -0.17956145      -0.11086754
C       -3.40244823      15.39904758      -2.14534831      -0.51231166       0.42966425       0.52714313      -2.55328584      -1.52369952       1.87056148
N       -3.80156496      14.17347343      -1.44395246      -1.45148894      -0.31257941      -0.70790872       1.55651784       1.81302643      -0.73004138
C       -4.35180859      16.02158232      -2.98311355       0.28385217       0.15969084       1.37119146       1.34859729      -0.72917449       1.13181710
C       -2.28505431      16.08461587      -1.72164874      -0.10465734      -0.09016639       0.45178454       0.66088438       0.91099107      -0.65701038
C       -5.02419480      13.52284210      -1.86471548       0.03214242      -0.03150595      -1.19373682       0.44753194      -0.53011525       1.50834966
C       -2.65108267      13.31902652      -1.08986868       0.35184001      -1.00713219       1.19824650      -0.65125906      -0.18816128      -1.01517391
H       -5.04711377      12.57812489      -1.31217796      -0.01938220       0.22022741       0.10142285      -0.22602974       0.16383956      -0.13556629
H       -5.03813586      13.25950427      -2.89181931       0.00627947       0.02165478      -0.06625508      -0.18367061      -0.05659059      -1.14612317
H       -5.91893954      14.07765753      -1.54974430       0.05863815      -0.02926969      -0.04225318       0.39269707      -0.03934785      -0.46907935
H       -3.06920697      12.30377802      -0.93369122       0.30287680      -0.20019359       0.05125271       0.74884570       0.65550452       0.14060736
H       -2.06612370      13.68945741      -0.24710291       0.11183591       0.14446980      -0.23757396      -0.50851589      -0.14752069       0.30870616
H       -1.93236398      13.33500728      -1.93161594      -0.04761730      -0.00341051       0.19779346      -0.26476929      -0.50783145       0.17251749
C       -4.14536127      17.27590258      -3.42652758       0.29715250       0.06960330       0.25300121       0.45871708       1.69300246      -0.81609774
H       -5.24536520      15.56031782      -3.25401228      -0.08257810      -0.11515307      -0.33943123      -1.12291813      -0.96931601      -0.27556115
C       -2.98872878      17.99433917      -3.08423861      -0.54884942      -0.11456188       0.52007025       1.02988398      -0.78958613       0.70417953
H       -4.90303748      17.68570507      -4.10286847      -0.29673015       0.14270762       0.23912238       0.43730631       0.12877455       0.34257850
C       -2.04255326      17.37946263      -2.20927925       0.30405434      -0.87738536       0.16734087      -1.77377248      -0.54804975      -1.08882821
H       -2.76404470      18.94071246      -3.56969095      -0.23506321      -0.13294250       0.18269203      -0.05196042      -0.13310990       0.42196929
H       -1.11238401      17.81896615      -1.95613378       0.41909965       0.08136957       0.12329744       0.26390859       0.57026398       0.17261787
H       -1.55676247      15.62968210      -1.06495731       0.20484127      -0.00763376      -0.19042856      -0.12698281       0.07149347       0.01445835
C        3.44991975      -7.88558975      14.94784088      -0.95663070       0.16492156       0.30568357       2.04377985       2.59105158       0.05206636
N        4.56162624      -7.01514898      14.74360165       0.13216611       0.14418219      -0.11416867      -1.28160203      -2.14105654       0.42269301
C        3.59156448      -9.26007862      15.13960641       0.86009657      -0.24453172       0.36114174      -0.67575788      -1.29421735      -0.47588080
C        2.20511554      -7.24117964      15.04109009      -0.03470058       1.61602334      -1.11029041      -1.18852448      -1.73844147       0.11667228
C        4.37582850      -5.72445437      14.23715202       0.71372489       0.53336087       0.16109938      -0.72930956       1.38722384      -2.41743040
C        5.84549876      -7.56025783      14.58311569       0.60464754       0.64439739       0.14713636       1.59210253      -0.96978742      -0.95583707
H        3.88099490      -5.09512680      14.92673596       0.13025263       0.03023636      -0.01857171      -0.19443871       0.99088103       0.96773612
H        3.67685886      -5.71652953      13.35410719       0.16925739       0.17695562       0.01944495       0.65587395      -0.06938832       0.31920940
H        5.32816674      -5.24257543      13.90667026      -0.05489677       0.30570360       0.24459461      -0.88407969      -0.51990455       0.51300257