1216
Lattice="23.38575211452816 0.0 0.0 0.0 23.38575211452816 0.0 0.0 0.0 23.38575211452816" Properties=species:S:1:pos:R:3:momenta:R:3:forces:R:3 mol_liquid.pdb=T energy=-542111.5625 free_energy=-542111.5625 stress="0.0026135239750146866 -0.0015260472428053617 -0.0010617213556542993 -0.0015260472428053617 0.0016207178123295307 0.0009602594072930515 -0.0010617213556542993 0.0009602594072930515 0.0005562008009292185" pbc="T T T"
C       29.37905866      32.27382966      39.50552696       0.83409760       0.59768129      -0.03888833      -0.45382375      -2.32544017       0.59353739
C       28.25727883      32.26126305      38.48727776      -0.22969685      -0.58836641       0.30681428       0.21998224       2.06129265      -2.15831470
C       30.33274342      33.41911418      39.35224770       0.55940448      -0.03082404      -0.27874680      -0.25000036       0.15819559      -1.24854159
H       29.89643333      31.27968064      39.43769523       0.17193220       0.18068858       0.06039887      -0.11456518       0.94213235      -0.16460915
H       28.94560017      32.20337823      40.50298198      -0.01612596      -0.01015075      -0.12165326      -0.16973194       0.41058099       0.19748311
C       27.36548790      31.03682879      38.35084062       0.02157187      -0.26473287       0.02423518       0.74110770       0.32275146       1.76335073
H       28.75801159      32.34072949      37.46852551      -0.21291023      -0.14502703       0.02014612      -0.51722926       0.21187831       1.10621858
H       27.64727833      33.27132261      38.59036792       0.09163234      -0.17077252      -0.04610397       0.88997054      -2.15499544      -0.14966148
C       28.00926139      29.74950970      37.89244577      -0.69323289       1.20075350      -0.48264612       0.98126078      -0.84713691      -0.79046172
H       26.54849509      31.28644956      37.69994727      -0.09644994       0.01059314       0.02425155      -0.53942400      -0.21846408      -0.23956874
H       26.97287076      30.77314989      39.35632721       0.14519254       0.08666880       0.27154180      -0.16003488       0.09262537      -0.64916325
C       27.00207635      28.59438589      37.82342528      -0.34861277       0.00367790      -0.51906813      -0.02313083       1.95029354      -1.79854631
O       29.20806348      29.57793406      37.63624169      -0.33805937       0.53818698      -0.85579483      -2.15108490       0.68251318       0.51417685
H       26.90157310      28.23820777      38.79374678      -0.15911940       0.03353548       0.23473808      -0.61692435      -0.71778268       1.77176118
H       27.34671947      27.82522152      37.19229758       0.14600071       0.12344740      -0.07635934       0.71182632      -0.82359660      -0.55178809
H       26.03695204      28.90215156      37.37290304       0.11379702       0.00244064       0.35021630       0.77946484       0.16490576       1.02938080
H       31.10133558      33.11408965      38.61861314       0.04111014       0.27152247       0.03315387      -0.74264646       0.77307230      -0.46097058
H       30.95125000      33.52259998      40.19472991       0.02525125       0.20211485      -0.06103339       0.42568940       0.46873003       1.57175112
H       29.75735660      34.36872024      39.14534148      -0.01661402      -0.21781958      -0.10061254       1.06340241      -0.90626717      -0.04818038
C       25.21217853      25.94798944       2.17966606      -0.22950014       0.14936522       0.69332739      -0.95680857       0.00473678       0.25506717
C       24.77109588      24.46192603       2.29223596      -0.96272809      -0.78866203       0.07872056       0.84910256       0.81246400      -1.19141650
C       24.18843689      26.71614070       1.26291744      -0.94604998      -0.37804264       0.46827364       0.57050210      -2.34574842       0.94214034
H       26.23110454      25.96415045       1.79665471       0.01066132       0.19022408       0.01115270      -0.03674821       0.13420841      -0.23713030
H       25.28638470      26.40692683       3.19113589      -0.11481377      -0.16635923      -0.08134199      -0.31406716      -0.30515674      -0.59473884
C       25.72207085      23.74297530       3.23127312       0.37348985      -1.14348899      -0.88367049       0.32751215       1.25641441       0.69175458
H       24.96192981      24.02781760       1.27840174       0.16086771      -0.18486263       0.05051260      -0.70344794       0.27485454       0.76074940
H       23.70270249      24.43708737       2.54607248      -0.03265362       0.10183648      -0.18900580       0.46587116      -0.34042677       0.02416198
C       25.61006805      22.27822142       3.25523878      -0.03095499       0.27075026       0.33690302       0.74111378      -1.75924075       0.65655088
H       25.58628489      24.15158847       4.25367009      -0.32115570       0.11017401       0.11642689      -0.21035495      -0.52338356      -0.31384540
H       26.72746066      24.05022699       2.99715205      -0.01913488       0.30372899       0.30277639       0.42198902      -0.16060434      -0.35190654
C       24.21015603      21.80322398       3.62389224      -0.74747470      -0.02688838      -0.68717573      -0.80008376      -1.64104676      -1.48564875
O       26.57010282      21.49907216       3.10262069       0.12746033      -0.59266572      -1.28853574      -2.27786565       1.84048319       0.27343750
H       23.47413047      22.57740782       3.89660301       0.18101144       0.19041575       0.12496628       0.66473508      -0.23209338      -0.19694023
H       24.28061080      21.06654591       4.42024710       0.08862822      -0.20195638       0.41816015      -0.00494519       0.21580094       0.03805232
H       23.77196051      21.18504472       2.74744041      -0.21137111      -0.17711125      -0.29943791       0.70114052       1.14775574       1.26488161
H       23.19553138      26.44421935       1.67670719      -0.04677554      -0.19130413       0.12009528       0.38798255       0.47777253      -0.46145970
H       24.29254089      26.25088597       0.25395532       0.22850283       0.14447910      -0.09047986      -0.25184292       0.90582514       0.57647252
H       24.34675876      27.76800718       1.33650883      -0.03515271      -0.03795973       0.34384661      -0.03398275       0.65889812      -0.44803202
C       30.16666629       4.09102194      -6.62453679       0.24862296       0.86600831       0.93547838       1.46569109       1.43235826      -0.86626554
C       30.80010647       2.99045868      -5.77212927       0.10759574      -0.75109769       0.05927319      -1.03335428       0.46666846       1.34124231
C       29.54554556       5.25343064      -5.83553656       0.04179572      -0.67919272      -0.31428208      -0.12503864      -1.45133531       0.74391311
H       29.43695259       3.63813236      -7.29251344      -0.16083292       0.00933852      -0.19490107       0.07524314       0.20797576      -0.27829030
H       30.98507465       4.62829992      -7.23785541      -0.32574785      -0.02502437       0.03376729      -1.27741861      -1.25298083       0.47764513
C       29.64868578       1.97037246      -5.33504862      -0.15003312       0.07700873      -0.37154766       1.86957383      -0.15999708      -2.63867188
H       31.32286650       3.50270081      -4.94025751       0.04619372       0.13488123       0.23461541      -0.45787224      -0.60303664      -0.01693609
H       31.58779379       2.44707793      -6.26915256       0.04902205      -0.28878565       0.21576614      -0.00805493      -0.24557008      -0.41016176
C       30.24641237       0.66461649      -4.76512748      -0.30097503      -0.31125136      -0.05334679      -0.46694410      -0.37353241       0.47859514
H       29.24054553       1.66760457      -6.36105278      -0.05116298      -0.03353048       0.23592790       0.22052722       0.22162408       1.40521133
H       28.82518049       2.46838847      -4.83675181       0.07353011       0.23428123      -0.06362162       0.09071855      -0.25195083       0.56274754
C       29.57659015      -0.64933951      -5.11315494       0.47793129      -0.36533153      -0.36089867       1.87836730      -0.99419618       2.12200499
O       31.22803392       0.60536813      -4.05556160      -0.89643649      -0.12866553      -0.59481351      -0.23010811       0.90941954      -0.16496149
H       30.27017912      -1.29185243      -5.66799853       0.05215642       0.16526275       0.11896651      -0.02590098       0.47914824      -0.18763474
H       28.71298785      -0.51097208      -5.67344378       0.18589604      -0.23761570      -0.17389612      -1.71050560      -0.12310494      -0.63064229
H       29.49740248      -1.22975373      -4.12605663       0.02726255       0.04748689       0.02935554      -0.54614484       0.96728009      -1.40033662
H       30.26214736       5.92791860      -5.47086833      -0.23958044       0.08224130       0.50970358       1.31565905       1.20018721      -0.24931473
H       29.13768949       4.98426136      -4.88994616       0.28059868       0.10082454       0.19197980      -0.64177734      -1.09299421       0.84874523
H       28.73319552       5.75963887      -6.27810818      -0.12057748       0.16565813      -0.14735943      -0.57460207       0.65093261      -1.06369615
C       27.36872024     -16.72817543       2.55709712      -0.33935048      -0.59960467      -0.77467592      -1.17992115       1.70628452      -4.05812550
C       28.78348460     -17.07423023       2.13191330      -0.28173916       0.50601466      -0.00680416       0.35250980      -1.07777905       1.18336797
C       26.51576768     -17.68402825       3.30877822       0.63750870       0.26023047      -0.09566333       0.18521635      -1.19886971       1.23823309
H       26.86304923     -16.48028031       1.46995054      -0.04433696       0.04553777      -0.05728167       0.64324450      -0.31022111       2.64026046
H       27.49433672     -15.80250547       3.07707991      -0.43155818       0.01497734       0.16948556      -0.50391090       0.52637947       0.19796610
C       29.44590899     -15.98590491       1.28538433       0.48077896       0.95105253       0.61943380      -0.79750371      -0.28838080       0.78537011
H       28.81030873     -18.04243528       1.60133040      -0.18273431      -0.13047402       0.08860435       0.00423335       0.47437409      -0.01637717
H       29.30504062     -17.26441074       3.07764581      -0.06879507      -0.12588368      -0.35823812       0.27355674       0.20487061      -0.32603735
C       29.52238179     -14.60464420       1.96748082      -0.10535660       0.39020732       0.03445694       0.58205301      -2.15593076      -1.90976846
H       28.84769200     -15.98807684       0.38416270       0.06678230      -0.07984925      -0.02092100       0.14960225       0.65696901      -0.34517923
H       30.45234702     -16.25036657       0.98238672      -0.10452805       0.07298861       0.25306606       0.09617097      -0.04273456      -0.08646125
C       30.22266458     -13.56020582       1.18887087      -0.03224280       0.09771238       0.39248700       1.20528567       1.07337558      -0.33396572
O       29.10618083     -14.46201299       3.06943729      -0.44350600       1.20021814      -0.04520025      -0.49469694       0.99200690       1.88782096
H       29.52125337     -12.79791650       0.85742039      -0.34909577      -0.02625218       0.00604661      -0.11816672       0.00659198      -0.09374257
H       30.78357664     -13.94805778       0.31844496      -0.26723873      -0.02526245      -0.13587821      -0.53003275       0.07064943       0.47404760
H       30.95087079     -13.05515256       1.85094562       0.11618112       0.18451521      -0.02689857      -0.41700464      -0.22638948      -0.24232286
H       25.42987660     -17.45829608       3.37151103      -0.00801228      -0.15566076       0.07584248       0.89499068       0.30218372       0.05219529
H       26.95507039     -17.84013783       4.33945777       0.16954493      -0.00760761      -0.05362526      -0.70826471       0.19209386      -0.89133036
H       26.57438668     -18.65097124       2.82689159       0.15164380      -0.01082573      -0.09587462      -0.11118628      -0.28168553      -0.06396528
C       15.06917237      -5.85100875       4.12561840       0.11646032       0.17629286      -0.09509330      -0.71000016       0.59029192       0.84204245
C       13.58784999      -5.94572235       3.63736255      -0.08161963      -0.59809052      -1.30480990       0.57311749       0.86195570      -0.81115389
C       15.27410834      -6.89503347       5.25985807       0.45517284      -0.33334302       0.78952785      -1.09309506      -0.18652040      -1.86970186
H       15.18773181      -4.83628897       4.59294865      -0.00154612      -0.02803566       0.01403913       0.09067257      -0.75208217      -0.64277816
H       15.82309274      -5.91113320       3.29933848      -0.16171211       0.34590158       0.31142973      -0.76910496      -0.24891260       0.70867693
C       13.30282588      -5.25379305       2.27846899       0.89075459      -0.54642955      -0.16577080      -0.52668989       0.53181183      -0.73805839
H       12.92463384      -5.51914114       4.37368101      -0.03299450      -0.04071646      -0.12382754      -0.04739528       0.43195450       0.41177601
H       13.17759739      -6.93409331       3.58732064      -0.09675872      -0.04029876       0.01387181       0.46336541      -0.82394421      -0.18940394
C       13.22147601      -3.71698070       2.41806912       0.30027205       0.61818752      -0.46918618       0.27238309      -2.16621780       1.09383512
H       12.32231431      -5.54918665       1.86817748      -0.15637418       0.05862091       0.00073020       0.54161048      -0.07095103       0.57004237
H       14.02758742      -5.51760781       1.48733680       0.07938609      -0.11492451       0.21371233      -0.00766250       0.29505208       0.71399158
C       11.94640234      -3.19178540       2.99210477       0.33039920       0.47654630      -0.26809451      -0.64596134       0.38992316       0.14471617
O       14.17856992      -3.02611266       2.22673952       0.56322802       0.05163300      -0.99129655       0.66266775       0.94316578      -0.50737208
H       11.48605126      -3.83231122       3.75256636       0.14136308       0.09278432       0.04626116       0.43117401      -0.03318527      -0.15139243
H       11.19806517      -3.16020343       2.20020757       0.06877825       0.17133090       0.02687134      -0.01832866       0.19849512      -0.13349871
H       12.11724783      -2.19118970       3.39225474      -0.16281907      -0.06367502       0.07735480      -0.13644223      -0.15460746      -0.20062625
H       14.71662461      -6.68889708       6.14757267       0.09151203      -0.11500751       0.21407988      -0.21728233       0.59509838       0.56086612
H       16.28337607      -7.05919887       5.48662266      -0.03654020       0.18982789      -0.25062210       1.41066527      -0.07945390       0.44468373
H       14.85826345      -7.84272747       4.91733286      -0.07776363      -0.33600104      -0.03137678       0.20848715      -0.18166623      -0.07994838
C      -23.65020604      19.25732567      41.32741814      -0.18470267      -0.37179773      -0.59723856      -1.49343407      -2.64670968      -1.50833011
C      -24.85140642      19.29482125      40.32620297       0.15153964      -0.54894092      -0.44438540       1.54422879       3.79837513       1.03929901
C      -23.97424677      18.02364780      42.17979180       0.41102694      -0.54892309       0.45203148       0.49325433      -1.69771123      -1.58331311
H      -23.69216650      20.02989309      42.02354380       0.07241939      -0.11751103      -0.13092135       0.37116304       2.01928234       0.52414471
H      -22.71137757      19.16808274      40.75422087      -0.06300195       0.17282817      -0.19752596      -0.28671092       0.20038086       0.61830771
C      -24.87425267      20.64290950      39.56243039      -0.85275602      -0.33382392       0.14914489      -0.20470086      -0.50975138       0.17800388
H      -25.75735183      19.11994918      40.81811761       0.23143065       0.12526311      -0.30790447      -1.45360160       0.05981263       1.10917926
H      -24.84815222      18.56913871      39.60743006      -0.00332532      -0.16004161       0.11235905       0.62372178      -2.12106323      -1.66209364
C      -26.01817583      20.71079563      38.55351944       1.09247057       0.46076531      -0.69040345      -0.43030843      -0.41477382      -0.00541273
H      -23.93437857      20.64311769      39.02545872      -0.06592574       0.03770956      -0.02877643       0.19442877       0.26870552      -0.60580516
H      -24.78671065      21.53373680      40.19998586      -0.22967932      -0.01820886      -0.11953193      -0.46565545      -0.32695889      -0.09836653
C      -26.41030742      22.04474267      37.94853113       0.11715137       1.66307477       0.78792165      -0.93509519      -1.29052424      -1.17198968
O      -26.59233698      19.68973023      38.20004650       0.81477890      -1.04169847      -0.73148457       0.36580846       0.63223630       0.32905146
H      -26.14468099      22.85280187      38.60411424       0.29695115       0.03861838      -0.10164855      -0.42986429       0.48477072       0.16531913
H      -27.49680681      21.95219327      37.55805419       0.13829133       0.04689988      -0.22009529       1.85992527       0.56180322       1.00935388
H      -25.76907088      22.13479917      37.05805353      -0.12989746      -0.02008989      -0.05687826      -0.20294356       0.17704266       0.24449557
H      -24.73748990      18.23943948      42.90062282       0.11451110       0.17144445      -0.01922580       0.06369027       0.26019740       0.42476690
H      -23.09480459      17.51513865      42.59978112       0.13712873      -0.09322102       0.10256993      -0.43222067       0.32320020       0.23199849
H      -24.47805573      17.28306925      41.50039169       0.10046560       0.20693556       0.27643841       0.69734734       0.38589591       0.74010658
C       31.08986144      12.17626765      21.04708221      -0.21821391      -0.14435898      -0.68163889      -0.29786724       0.66308874      -0.79557830
C       29.69488211      12.32623803      20.33906866       0.26229642       0.13751370      -0.13925889       0.05983808       0.18469927       1.76368427
C       32.26733085      12.95265001      20.49598058      -0.18454903       0.15622407      -0.37932469      -0.64973539       1.52463055      -0.67408913
H       31.29152515      11.12384502      21.12808243       0.04655411      -0.01667601      -0.19791680       0.20907646      -0.46619326       0.07679836
H       31.15521576      12.58797491      22.02119254       0.17673214      -0.30464087       0.08409314      -1.25110734      -0.09877256       1.39133048
C       28.58518622      11.88301482      21.32267159       0.21191038       0.69984873      -0.37851913       0.55104601      -1.62002540       0.27446824
H       29.70578609      11.78150566      19.43182147       0.13030718       0.16212763       0.04453023      -0.11663514      -0.80935735      -0.84228563
H       29.40327295      13.32838033      20.04796760      -0.15849556       0.02470959       0.24852328       0.52061999       0.47741964       0.03646418
C       27.20399030      11.63207219      20.81709347       1.19284835       0.70344457      -0.88424640      -0.16437653       2.09225535      -2.03108096
H       28.58068301      12.62581928      22.13983295       0.16398445      -0.00205701       0.19606309      -0.26730478      -0.97357768      -0.06461491
H       28.71812115      10.81711473      21.70767627       0.10073538      -0.00156889       0.10554103       0.91524851       1.37972736       0.24382314
C       26.21465040      10.97880867      21.70335341      -0.36176979       0.64749518       0.49782910      -0.43839452      -1.75460172      -1.50081658
O       26.87581335      11.98848698      19.68668150       0.35333838       0.65976806      -1.38920637       0.11949955      -0.45797977       0.65511930
H       26.64405739      10.56664492      22.57455124       0.14244859      -0.00274797       0.26905196       0.34189552      -0.14045556       1.10309577
H       25.81014312      10.11605037      21.09646194      -0.12682161       0.01810261      -0.02814967       0.14271170       0.90898818       0.66071957
H       25.40913950      11.64709978      21.91223708      -0.08709140      -0.03344309       0.01938676      -0.48572797       0.38150239       0.21907119
H       31.93135687      13.98210974      20.26559275      -0.21315397       0.25663079      -0.26576121       0.09131113      -0.21102110       0.56855118
H       32.59418956      12.67296735      19.54090814      -0.01995693      -0.01157481      -0.00106885       0.75623024      -1.03645575      -1.34578609
H       33.11293264      13.03111632      21.17635804       0.44597326      -0.03410314      -0.01854701      -0.07524227      -0.21507563       0.01192044
C       24.63490765       2.33224177       6.60268933       0.05788490       0.92345275      -1.22532329       0.67711020       1.73350310      -1.74416029
C       23.30775070       2.19801877       5.90125862      -0.00938876       0.27042861       0.21435597      -1.05596483      -1.37295270       0.64755082
C       25.27171397       3.73419376       6.35563123      -0.79118965      -1.17843445       0.49712551       0.89640331      -1.92088056      -0.62943780
H       25.34379114       1.66382317       6.13656966       0.41784805      -0.17488656      -0.14266800       0.08590391      -0.72563225       0.37216216
H       24.53220063       2.14253322       7.65261492       0.01862130       0.05823938       0.04596149       0.13631111      -0.21494651       0.49911177
C       22.52837910       1.02456616       6.56910113      -0.64271532      -0.24342510      -0.78913898      -1.37080538       0.75105166      -0.61040694
H       23.32516983       2.05280336       4.80510278       0.14396721       0.18759138       0.19254117       0.50460863      -0.18579265       0.56412280
H       22.70069980       3.08634275       5.99176143      -0.14248640      -0.30154971       0.00073176      -0.09014426       0.36491615       0.36021319
C       21.27849292       0.66233106       5.78652199      -0.02938339      -0.14213567       0.40946940       0.05017091       0.35290170       0.31146979
H       22.24579716       1.19199721       7.63095537      -0.41449730       0.15100917      -0.09740506       0.32401803       0.06822644      -0.72288740
H       22.99221785       0.07048807       6.55585457       0.16077951       0.21213402      -0.19282068       1.42626727      -0.75295043       0.19605893
C       20.46945996      -0.51579455       6.24913567       0.22995416      -0.82854137      -0.54296181       0.25430384      -0.14375719       0.54307312
O       20.96320532       1.29538474       4.81078972      -0.67154882      -0.22555959       0.64688624      -0.33920982       0.02370363      -0.71004903
H       21.14643078      -1.41408669       6.32891525      -0.04135987       0.10534722      -0.12570948      -0.93884051       0.85668552      -0.06006911
H       19.60227260      -0.62626187       5.57432889       0.15243084       0.19901646       0.37071938       0.60714537      -0.26891708       0.49417716
H       20.13662068      -0.24625728       7.27394502       0.25313330       0.03908919      -0.11285667       0.02505492      -0.43952996      -0.46643943
H       24.87837707       4.43265526       7.01644978      -0.05822323      -0.22631856       0.03879772      -0.52219456       1.28366828       1.31839442
H       25.05028298       4.11514841       5.35885300      -0.12228914       0.10651193       0.10790921       0.19510233      -0.28794536      -0.10992518
H       26.36592319       3.60767780       6.50246977      -0.10783011      -0.12124349      -0.05395136      -0.67103058       0.60392833      -0.11627311
C        4.64935115      -5.54916730      31.88103401      -0.07923458       0.45695617       0.28007403      -0.45435277      -2.38021183      -0.68057126
C        5.70161692      -5.13436233      30.86673916       0.71398359      -0.56264356       0.26105211       1.42850471      -0.46194991      -1.28494596
C        4.70861289      -4.74425730      33.18090171       0.38347001      -1.14189213      -0.02513391       0.52198428       0.16973017       0.71852034
H        4.76506533      -6.69051308      32.06278849       0.02092686       0.12013610      -0.02370639       0.22095332       1.86630869       0.07270101
H        3.66573002      -5.57985301      31.35342397       0.02716661      -0.04493596      -0.05663213       0.37044847       0.63414025       0.80776638
C        5.77576060      -5.93547316      29.52465787      -0.40319760       0.04721393      -0.44338676      -2.22099471       0.11123789       0.53038770
H        6.68483212      -5.31102781      31.30790336       0.02431867      -0.03131109       0.23703693       0.03359804       0.28801107       0.21701893
H        5.71392551      -4.09277485      30.53401851      -0.06834233      -0.30413283      -0.20827516      -0.35459721       0.11318028       0.56310594
C        6.88736448      -5.62266477      28.60754866       0.21996294      -0.29702707      -0.33959525      -0.20815170      -0.27568769      -0.91439837
H        4.82596199      -5.80570142      28.92967787      -0.02280555      -0.33511285       0.14788235       0.77317703      -0.04323856       0.40431443
H        5.82146053      -6.98626009      29.68719596      -0.12027000       0.17905877       0.05495852      -0.12272594      -1.05085111       0.45007163
C        7.29314738      -6.62473592      27.53157406      -0.11009404       0.50556324       0.78159292       0.39630204      -0.25794357      -0.04177714
O        7.47556905      -4.58454566      28.67933930      -0.23345822       0.31575819      -0.95180561       0.83752263       1.35253489       0.16726744
H        7.78903076      -7.46182999      28.09728305      -0.02391612       0.15456107      -0.05347090      -0.08011792       0.73908234      -0.80317533
H        7.99080657      -6.04558540      26.85677451      -0.16700770       0.14737854      -0.10556761      -0.63140810      -1.13145828       0.73900449
H        6.47390506      -7.10870826      26.95297127      -0.07082079      -0.06134655       0.02899948       0.41729850       0.72978652       0.57109666
H        4.08993513      -5.15675074      33.99448538      -0.06767067       0.09368863      -0.09755109      -0.14752021       0.18098158      -0.59945655
H        4.44169673      -3.68843000      33.00734629       0.04139140      -0.23048046      -0.13772877      -0.01486401      -0.45485190       0.11819158
H        5.72607437      -4.72717086      33.66466233       0.08063438       0.08144727       0.26171151      -0.73861486      -0.14970498      -0.93734610
C        5.04434123      23.31110909      22.38778811       0.64525890      -0.22480814       0.61162183      -0.11187369      -0.30172712      -0.54461557
C        6.43980163      23.38648367      23.03559880       0.01419767       1.52998899       0.81504454      -0.83295929      -0.16040307      -0.58082980
C        3.87555877      23.75051519      23.22005162      -0.14572245      -0.32092689      -1.28279658       0.93081820       1.87569714       0.97925383
H        4.77774378      22.28821110      22.13844948       0.28997049      -0.23387521      -0.13123291       0.60337561      -0.33723783      -0.38788125
H        5.00875791      23.88789700      21.45368493      -0.17324778      -0.07176368       0.00049684       0.38280767      -0.21430224       0.13793425
C        6.56181793      22.64484602      24.34686555      -0.32598005       1.01033846       0.23671827       1.39575839      -0.92230028       0.74425638
H        6.75456492      24.42377224      23.13117715      -0.15863352       0.02077882       0.13340119      -0.01841521       0.05545138       0.10424224
H        7.09817197      22.88541713      22.33838953       0.09177451      -0.21178475      -0.01707753       0.38741463       0.16761637      -0.10377271
C        6.42711867      21.11806627      24.15639039      -0.93686296      -0.04363097      -0.24441536       0.50105613       0.53056794      -1.52598739
H        5.84100827      22.87551672      25.10676595      -0.04454321      -0.00871029      -0.02905993      -0.26263383       0.76748371       0.41548377
H        7.61682792      22.83056827      24.75387490      -0.12517483      -0.33864151       0.21187469      -1.44243181      -0.30437103      -0.24970117
C        5.79005689      20.27642987      25.19562785      -0.06574747       0.32725149       1.15580009      -0.88888156       0.18846951       0.88413918
O        6.84085358      20.66193232      23.10779658       0.22092008      -0.68641588      -0.13746010      -0.10468567      -0.43821251       0.26468718
H        5.64840284      19.26004576      24.93256073      -0.05838943       0.07158372      -0.06536946       0.11292490      -0.91097724      -0.98147047
H        4.77398074      20.61339643      25.49546767       0.14781620      -0.07228517       0.05527982       1.03999150       0.24602911       0.00305225
H        6.45038411      20.19337243      26.04953203      -0.05310032       0.08515676      -0.16643561      -0.00347885       0.51247364       0.55181861
H        3.77537846      23.04460283      24.06585773       0.24983792       0.30643993       0.02253211      -0.26006657       0.79445755      -0.13612552
H        2.98320500      23.75924187      22.60642194       0.07175718      -0.06158161       0.10690496      -0.27695182      -0.03000949       0.13015297