1408
Lattice="24.911022514865248 0.0 0.0 0.0 24.911022514865248 0.0 0.0 0.0 24.911022514865248" Properties=species:S:1:pos:R:3:momenta:R:3:forces:R:3 mol_liquid.pdb=T energy=-610615.125 free_energy=-610615.125 stress="0.003060480346903205 -7.1822723839432e-05 0.0022831165697425604 -7.1822723839432e-05 0.001603473094291985 -0.000135045891511254 0.0022831165697425604 -0.000135045891511254 0.0014751129783689976" pbc="T T T"
C        8.89741323      47.04378071      27.16397194      -0.54703512       0.76499637      -0.72514120      -0.60078990       1.26587749       1.24524736
C        8.44038719      46.34424233      28.46345475       1.02228244       0.43675143       0.28455400      -1.29827619       0.93560827      -0.88242352
C        8.04009810      46.75449169      25.97066133      -0.42909021       0.30402686      -0.79185965      -1.19123137       0.98120058      -1.82009661
C        9.10458613      48.59571540      27.35656484       0.34258588       0.37612227      -0.26428911      -1.01788568      -2.05557919      -0.38050109
H        9.82780726      46.68283233      26.81408212      -0.12170196       0.13533292       0.12322492       1.46008480      -0.43732542       0.20883401
H        7.61384791      46.87964169      28.97188684      -0.04922978       0.12258018       0.02159922       0.09887812      -0.23420629      -0.85541511
H        9.15820409      46.38489888      29.22989482      -0.17362479      -0.18313147      -0.11447951       1.27398300      -0.40525648       0.62214416
H        8.11419429      45.33767936      28.21244733       0.19906396      -0.00841171       0.04170836       0.13826664      -0.09214535       0.29518536
H        8.47659289      47.21453724      25.05078635      -0.07898477       0.02551962       0.06756985      -0.45064005      -0.26263878       0.71891236
H        6.97891961      47.05124632      26.00821251       0.11077115      -0.03583191       0.08343127       0.41917375       0.41063613       0.34206691
H        7.95207701      45.72238273      25.72467189       0.22063980       0.17456405      -0.12319776       0.40427375      -1.00673771       0.16943514
C        9.57435286      49.36574073      26.18189307      -0.40693751       0.89386549      -0.33018913       2.50113726      -0.18276212       0.30386883
O        8.83268076      49.12799282      28.39819520       0.62451709       0.22833243      -0.77942924      -0.10527579       0.32418928       0.73763096
C        8.55822127      50.38203379      25.69044291       0.10285264      -0.29087362      -0.84220629       2.53396177       1.16883540       0.55863267
C       10.85274367      50.16071582      26.66508967       0.28819341       0.29041657       0.57700325      -0.39494127      -1.64076734       1.75689769
H        9.94985878      48.66990240      25.40300886      -0.34872036      -0.20665258       0.00851709      -0.53761369       0.44945431       0.43591994
H        7.58488280      50.12190234      25.90325456       0.00323541      -0.08872551       0.16567916      -2.09606886      -0.66002506       0.09356159
H        8.73472396      50.59633482      24.65022073      -0.07087919      -0.14625501      -0.01306441      -0.26232031       0.09576659      -0.32830563
H        8.79792249      51.28959449      26.27289657      -0.33768114      -0.10261028      -0.17020370      -0.53495723      -0.20956677      -0.46433121
H       10.58469045      50.94401161      27.33273742       0.01911092      -0.14147503       0.13191476      -0.65564001       0.76354998       0.20988652
H       11.25966205      50.52692726      25.80319380      -0.08717037      -0.00970120      -0.25879980       1.24485159       1.28946877      -1.99666083
H       11.68145590      49.67195471      27.24580467      -0.28782406       0.04939821      -0.10518755      -1.10053349      -0.34491104      -0.86898166
C       -1.41180095      29.94723027      17.35863915      -0.94163725      -0.22701339      -0.62887091      -1.01338172      -0.66710597      -0.50547022
C       -2.18209399      29.31630585      18.49947331       0.19925206       0.44323759      -0.53395976       0.53825426      -2.42197037       0.01705983
C       -2.40515162      30.75844595      16.49382230       0.08169620       0.38802120      -0.28722436      -0.56832123      -2.12922072      -0.67016035
C       -0.15236282      30.58081306      17.80548722       0.29618225      -0.15462086       0.31011190       0.41742432       0.20483565      -0.05692729
H       -1.02162325      29.09307248      16.82093404      -0.25830297       0.31161791      -0.10185560      -0.04947195      -0.07653549      -0.61309969
H       -2.81534237      30.06392687      18.90412662      -0.07649753       0.12556151       0.19202318      -0.69222200       0.23575607       0.91329479
H       -1.54098587      28.78149133      19.23792479       0.08382841       0.11277630      -0.04363502      -0.32233953       0.97864968      -0.13251942
H       -2.73909095      28.43144413      18.10210158      -0.08888594       0.06439190       0.02015554      -0.16376008       1.05310476       0.17703874
H       -1.95539153      31.57863158      16.00634956       0.06614461      -0.16000561      -0.08007423       0.45352608       1.01843607      -0.32720631
H       -3.27548965      31.04953637      17.07664431       0.29085061       0.01594233       0.00809726       0.19448811       0.38387898       0.13170245
H       -2.84145397      30.09752362      15.67256002       0.19926855      -0.15916660       0.03317418       0.71097827       0.74226010       1.07031524
C        0.93265254      29.59517992      18.21617467       0.74663460       0.91483035       0.20148032      -0.12098935       1.18852186      -1.11117792
O        0.07343962      31.74973050      17.66252601       0.21281573      -0.47734935       0.01493981       0.16525748       1.18906176       0.20597753
C        1.58843656      29.29686843      16.87862873       0.39863816       0.15215720      -0.37405384       2.33322811      -1.46599436      -1.11977339
C        1.95419439      30.14660956      19.17219591       0.84977886       1.01774046      -0.51951376      -0.77117252       0.55349338       0.10086194
H        0.39699775      28.73780468      18.56243291       0.45771846      -0.11405195      -0.12149119       0.34347910      -0.75205004       0.49131423
H        0.92470923      28.84590052      16.15924452      -0.09877379      -0.03364150      -0.08691623      -0.42323199      -0.21258557      -0.17279452
H        2.48851173      28.55234514      16.92160010       0.03579930       0.12849348      -0.03021921      -1.61302972       1.34052277       0.37171671
H        1.98740807      30.18769093      16.36402305       0.10993889       0.12425607       0.18662684      -0.13771088      -0.14848027       0.60776341
H        2.31361405      31.14358142      18.95333814      -0.11801502       0.24950506      -0.12359571       0.03767653       0.06621055      -0.77684397
H        2.76852245      29.46980660      19.18698238      -0.19524672       0.08277295       0.01462267       0.81916624      -0.53849316       0.51104832
H        1.49240586      30.29191841      20.12253872      -0.19187390      -0.05358460       0.12954703      -0.07605407      -0.39466548       1.03000045
C        8.54286200       9.22254930       7.46853651       0.13625616      -0.56349762       0.98756892       1.22347951       0.80035406       0.54932344
C        9.54572529      10.21065127       6.77993547      -0.77808590      -0.02237834       0.32188193       0.16774927      -0.93609285       0.79592627
C        7.17017020       9.77535145       7.54768376       0.45274796      -0.73598427      -0.41550321      -1.47892118       2.61496305       0.09656286
C        8.58874761       7.86853943       6.81947413       1.17518946      -0.34919639       0.38911162      -0.81254423      -1.11749291      -0.22253349
H        8.90575501       9.15962323       8.53875007       0.21567235       0.14362353      -0.51682323      -0.08815393      -0.52572107      -1.15330374
H       10.52713797       9.70823201       6.71507730      -0.01417682       0.17545781      -0.07028356      -0.49163240       0.52520996      -0.33606055
H        9.67779561      11.06506479       7.40851402      -0.00153475      -0.04885266      -0.14137213       0.11014809       0.46045411       0.62442583
H        9.19442814      10.63281636       5.85185711      -0.05382252      -0.21594484      -0.23267221      -0.01465265      -0.42626339      -0.38348711
H        6.37136899       9.11788290       7.84024965      -0.20433358       0.08643453      -0.10729977       0.16473779      -0.43341506       0.17850511
H        6.80171350      10.25236331       6.62599543      -0.14846027      -0.05709938       0.20307846       0.39843163      -0.48721299       0.02081713
H        7.13508822      10.65694834       8.24359425      -0.24842903       0.13078216       0.02035030       0.17842856      -0.86141664      -0.28007799
C        9.93191899       7.18052799       6.62054855      -0.80754995      -0.64099815       0.90444878      -0.83041912      -0.39028931       0.71149057
O        7.56222448       7.27800236       6.50817171      -0.22674371      -0.05389318      -1.24413146       0.45002243       0.78789735       0.08528481
C        9.72749053       5.70045319       6.98697710      -0.56889912       0.82399364       0.50284802      -0.04452714      -1.04505384       0.24960072
C       10.44703572       7.31398435       5.21778174      -0.24935087      -0.57733410       0.24787341      -1.27573085       0.12111162      -0.58887851
H       10.59042164       7.71433541       7.29193921      -0.08449467      -0.14438730       0.23675876       0.47425961      -0.38866687       0.27390805
H       10.56838716       4.96955678       6.80164056      -0.34900626      -0.04015993      -0.06994117      -0.68372905       1.19721413       0.17845348
H        8.82233305       5.28690214       6.50198880       0.22030282       0.12281844      -0.06014485       0.63513410       0.41884860      -0.19290638
H        9.44762915       5.62838592       8.03629029       0.03824988      -0.04770400       0.29319860       0.33213967      -0.04973393       0.19958940
H       10.51647731       8.36374468       4.93345087      -0.00593557      -0.12229142      -0.05466503       0.24765706      -0.17867488      -0.20506477
H        9.72437013       6.80016607       4.53885562      -0.19561631      -0.00703375      -0.34806928       0.83289444       0.33620784       0.29018259
H       11.40050776       6.83263116       5.24719474      -0.04672163       0.13659609       0.06795058       0.65418696      -0.21132287      -0.65786988
C       37.32694881      -8.20399332       5.80193320       0.16962935      -0.00318093      -0.50940672      -1.43757617       1.49247670       1.32370114
C       36.59881476      -7.41203594       4.72598371       0.72152391      -0.14794623      -0.17565612       1.57670927       1.01862764      -1.37723124
C       36.26106730      -8.47879745       6.92357679      -1.31907939      -0.49174330       1.24296391       2.80660915      -2.97342110      -0.14286557
C       37.86927078      -9.44409504       5.19365410      -0.38034643       0.25533281      -0.43435025      -0.63678998      -0.19109431       0.86109990
H       38.10482323      -7.60251660       6.27901572       0.00226825       0.03135601       0.02796354       0.10597473      -0.01789068      -0.35645744
H       37.28606308      -7.26833995       3.83608819      -0.00328174      -0.00768261      -0.07075563      -0.67205763       0.46600640       0.97793138
H       36.14886800      -6.45951299       5.08105175      -0.29544805       0.04823989       0.15661872       0.58859986      -0.59399247      -0.24533468
H       35.82038257      -8.00479238       4.32874262       0.13209609      -0.08152455      -0.15249049      -1.04313612      -0.58820122      -0.14220420
H       36.84025602      -9.05308991       7.71965184       0.03532738      -0.02904403      -0.03893582      -0.83663321       0.98364961      -0.52426022
H       35.56812776      -9.26047356       6.55948959       0.00547949       0.18076660       0.05598288      -0.19011934       1.20996380       0.17990761
H       35.92425876      -7.54919587       7.30570999      -0.00774753      -0.10325867       0.10551438      -0.73725992       0.50212014       0.23121887
C       39.10166368      -9.47494437       4.35384010       0.68062638       0.40560429      -0.75471412      -0.31901142       0.22171171      -0.52027899
O       37.24738487     -10.45401930       5.41529639      -0.30143089       0.25137378       0.08788138      -0.21168998      -1.24374962      -0.27849415
C       40.02468349      -8.26121638       4.58027336      -0.56603884      -0.43261726       0.83876230       1.49511623      -1.21750355      -1.45218611
C       39.79450327     -10.82394493       4.58372057      -0.44859916      -0.57844769       0.68406451       0.70613790       0.43792313      -0.24763736
H       38.73389585      -9.50442692       3.31365715       0.09999186       0.14416087      -0.27000140       0.18410912       0.31610152       0.18028136
H       39.68775419      -7.24699173       4.32744359      -0.24542738      -0.02264604      -0.15356340      -0.15388246      -0.61442506      -0.29079601
H       40.98253659      -8.54345359       4.02599391       0.06990379      -0.33331020       0.36717283      -1.18487620       0.90270185       0.51024479
H       40.32944463      -8.23710628       5.59560371       0.01918617       0.08391663      -0.13829223       0.20815355      -0.00793050       1.10226476
H       40.04729458     -10.92260498       5.63564819       0.24280497       0.42362586      -0.08837513       0.42292193       0.05919380      -0.11256789
H       40.70197707     -10.81037616       3.94743179      -0.07380625      -0.15538435      -0.02994792      -0.43738294      -0.38679874       0.57901567
H       39.16780608     -11.68808009       4.36491403      -0.06132081      -0.14311313       0.04945233       0.04085393       0.31841183      -0.33368376
C       32.22447369      33.39398694       3.16890181      -0.19974852      -0.45693177       0.11352613       0.27058151      -3.23351097      -0.76480120
C       33.15251634      32.99685747       1.96986753       0.25977632      -1.36895078       0.31436376       0.44214261       0.48800665       0.30017853
C       32.56791225      34.66172822       3.82215720       0.34977909      -0.09005446       0.35179978       0.84074676       0.84476131       0.25476316
C       30.73657042      33.21654392       2.73552545       0.54973627       0.17455782      -0.63757052      -0.47957322       2.49764681      -0.58863819
H       32.34702936      32.59941868       3.93654677      -0.12086045       0.24560401       0.18537070      -0.02878307       0.16409372      -0.41979337
H       34.24447966      33.00744270       2.12886558       0.19618681       0.18377491      -0.11083791      -0.48833814       0.61304998       0.60916269
H       32.95627515      33.60214959       1.10313933       0.30102430       0.40094307       0.03818193      -0.06108460       0.63317192      -0.28791007
H       33.04757563      32.00856889       1.60046702       0.14275665       0.20289995      -0.21359341      -0.73022687      -1.00274539       0.10891357
H       32.38701160      35.47353063       3.14536369      -0.06021512      -0.14064585       0.07307913      -0.51551729       0.66687858      -0.06954126
H       33.64744745      34.78444645       4.06726790       0.13110468       0.31328524      -0.03570578      -0.97096366      -0.83293784      -0.10624004
H       31.99152263      34.71015533       4.73233970       0.18907123       0.02440611       0.26372441      -0.14479281       0.58448744       0.10348076
C       30.31547307      31.92185734       2.06640518      -1.12574698       0.43018059      -0.06984331      -1.26918137      -0.87642092      -0.15227053
O       29.94172828      34.15734561       2.84194143       0.66806075      -0.52983856      -0.56433341       1.23270285      -1.47217643       0.12899233
C       28.86335611      31.45660820       2.64410383       0.17450644      -0.28526596       0.40564094       1.79138017      -0.22339815       0.39622772
C       30.39279819      31.92801644       0.46740285       0.82528857      -0.82226979      -0.82419043      -0.67365015      -0.84783286       1.62207127
H       31.04207704      31.19667274       2.40958428       0.00161014      -0.06507877       0.19982488       0.10738624      -0.38198000      -0.17548341
H       28.26080707      30.86963248       1.95558091      -0.12867455       0.03967704       0.04476871       0.23102579       0.19545327      -0.35801852
H       28.34345773      32.36672041       2.92080552      -0.26490428      -0.10612260       0.22677032      -0.24229285      -0.13848256       0.14110196
H       29.00203118      30.76533665       3.53206910      -0.01290175      -0.18641589       0.00228354      -0.07477006       1.08763719      -0.86411536
H       31.40421799      31.85113808       0.11889711       0.14858818       0.32839545       0.10614372       0.41949707       0.13779643      -0.11318584
H       29.87853301      32.72964155      -0.02201668      -0.03872253       0.02594633      -0.22862479      -0.18086305       0.77272338       0.10349812
H       29.87373610      31.02296551       0.14718460      -0.11522217      -0.10294832       0.14097783       0.18746161      -0.05052980       0.04165210
C       12.84170471       4.55486507      20.60808703      -0.35213751      -0.90315319      -0.45507343      -0.51222789       1.33844447      -0.31279823
C       14.08698167       3.77515374      20.28681265       0.04950181      -0.08515415      -0.49593277       1.01394176       0.39303887       1.25311089
C       12.83734418       5.21044362      22.01096342       0.21467622      -0.65235633      -0.84437357       0.00456883      -0.18804424      -0.61778462
C       12.61880241       5.78737092      19.69996920      -0.99018870       0.58089658      -0.18996268      -0.49660271      -1.19364738       1.39894617
H       11.94017904       3.99540074      20.49540331       0.03669906      -0.31515602      -0.03296579      -0.54000318      -0.93588227       0.09329427
H       14.13179149       3.34988154      19.29430757      -0.45037784      -0.00206069       0.12564066      -0.28813460      -0.32319850      -0.06203876
H       14.25879207       3.02830723      21.08857312      -0.01296249      -0.01631808      -0.20877667      -0.13529761       0.06207186      -0.77753854
H       14.94749585       4.46134695      20.35423796      -0.21482195      -0.19695820       0.36175340      -0.33709049      -0.17742655      -0.02167489
H       13.66005651       5.92576361      22.06398224      -0.18346258       0.03978053       0.10322728      -0.19703311      -0.17337313       0.26931739
H       12.87029200       4.49820244      22.80915981      -0.04439487      -0.14579924      -0.00333152       0.54156822      -0.55907345       0.34563902
H       11.89685700       5.70574136      22.20356502       0.20173762      -0.00418999       0.10942455      -0.07285672       0.48941648      -0.21857363
C       11.13428124       6.14552183      19.50304106      -0.85857781      -0.41881423      -1.14822219       2.03377795       0.11210096      -1.75738263
O       13.57888160       6.38981945      19.32691065       0.74699672       0.09218252      -0.52549375       0.57095796       1.18588912      -1.07447565
C       10.82197549       7.59892647      19.38884914       0.64535152       0.48855096       0.45734235       0.93913585       0.52815771      -0.23404515
C       10.67930644       5.39462667      18.26228801       0.21627509      -0.03595608       1.26059036       0.36232513      -3.48302913       1.66417325
H       10.63909395       5.66890233      20.30172821      -0.40980639       0.02320508      -0.10222279      -0.73181349      -0.22082990       1.07167244
H       11.07377297       8.08012109      20.31323773      -0.23735437      -0.03112618       0.15156766      -0.45317617       0.50527424       0.58651626
H        9.80183615       7.72164439      19.07645517       0.18698816      -0.00197444       0.02317764      -0.49705243       0.29467213       0.26786333
H       11.45189275       8.10980307      18.65344563      -0.05239801       0.30562928      -0.31044047      -0.06644564      -0.37553358      -0.09552317
H       10.89004399       4.27060518      18.50707788      -0.08960543      -0.04577122       0.10707716       0.03765962       1.89526927      -0.93883651
H       11.04266352       5.65144681      17.28217209       0.06108992      -0.02738197       0.27513147       0.13064843       0.33537844      -0.03371248
H        9.62846437       5.35771677      18.36969710       0.22053451       0.06045652      -0.25088735      -1.33862996       0.45238796      -0.80353522
C       15.26738888      11.24443931      17.11110580       0.29818073       0.60795484      -0.05226241       1.79578686       0.46273533      -1.26111984
C       14.37645579      12.15274817      16.26856943      -0.21112537      -0.39951241      -0.14420217       1.15714729      -0.04058105      -0.12352619
C       14.62628365      10.24995145      17.99774156      -0.41771668      -0.37709112       0.43720727      -0.85544109       1.43952608       1.52359807
C       16.25570686      10.58890332      16.14679922       0.43284826      -0.53398730       0.00326287       0.58436775       0.19534539      -0.86056948
H       15.85612476      11.99341552      17.66976047       0.18631205      -0.16394326       0.26505530      -0.03143282      -0.51888454       0.14293909
H       13.77460682      12.59193790      17.00011436       0.12739074       0.00463796       0.36237704      -1.29656935       1.13998890       0.79084635
H       13.74461274      11.65992310      15.54740261      -0.24903548       0.02260236      -0.06149103       0.06224103      -0.19859773      -0.39344338
H       15.05587220      12.91805205      15.84964190       0.27801528       0.03487991       0.06655053      -0.84632933      -0.32919362      -0.18735829
H       13.82629108      10.73697621      18.59421542       0.19224879       0.05647439      -0.14962272       0.37012380      -0.30556715      -0.32084540
H       15.35125675       9.88824583      18.68846925      -0.13546004       0.19423338      -0.12372878       0.51480007      -0.42395318       0.60992432
H       14.23306018       9.42536320      17.49581457      -0.19511343       0.08665416      -0.06783292      -0.69073069      -1.19463396      -0.88416535
C       17.22173225      11.50197604      15.30309301      -0.36336741       0.43811095       0.52484828      -0.76743120      -0.20135280       0.32689923
O       16.26370232       9.39204633      15.91024112       0.39660031       0.30696918       0.07527190      -0.07350820       0.58342296       0.33356425
C       18.66983282      11.23020967      15.64977549      -0.75980485       0.55955260       1.08374236       1.02881050      -1.43836999      -0.49637842
C       16.91643421      11.26965406      13.81126811       0.37136086      -0.54951885      -0.46038989       0.82441485      -0.65675175       0.30831671
H       17.09359044      12.57281708      15.50958863       0.03034563       0.11413400      -0.11882769      -0.40206861      -0.55792636       0.18202814
H       18.96788545      10.13992004      15.58290069       0.02313591      -0.02007392      -0.06259771      -0.74596941       0.96605253       0.36927149
H       18.90786321      11.60943840      16.64724654      -0.27897451      -0.07056285       0.07836458       0.23674414      -0.09491064      -0.37735111
H       19.33185988      11.65125255      14.87057457       0.02140131      -0.01617856      -0.22395672      -0.28581250       0.38003486       0.62506384
H       17.23663476      12.16340407      13.28318694      -0.00834330       0.11462610       0.12018206      -0.09288719      -0.13197218      -0.32660878
H       15.86337879      11.07451495      13.63762206      -0.05418777       0.11487975       0.01356818      -0.05542874       0.08892117      -0.12865667
H       17.50884812      10.39565529      13.45582176       0.13644347       0.06768633       0.09188771      -0.58940661       0.60172504       0.10758254
C       -6.45108777      14.70259956       9.28915050       0.61473201       0.50238533      -0.40018324      -1.25587916      -0.42687538       0.65828109
C       -5.19690809      14.06129797       8.86443209       0.62946930       0.04007727       0.44775606       1.80880809      -0.16926265       0.33240473
C       -6.48040800      16.19795109       9.11824465       0.25902807      -0.53030344      -0.44586444       0.38132364       0.18045694      -2.32698488
C       -7.66996079      14.21346944       8.51292396      -1.84124942      -0.26106702       1.04639451      -1.23511839       1.21384907      -0.08786894
H       -6.56354763      14.41307835      10.31511176       0.09038771       0.10133507       0.13344306      -0.46045631       0.29455265       0.82853711
H       -5.21591313      13.00041497       9.16859815      -0.08699141       0.07738757       0.06471841       0.22326000       0.38574752      -0.41450217
H       -4.32119617      14.54855483       9.40119712      -0.01298095      -0.30507335      -0.27570695      -1.08908689      -0.58728319      -0.80885518
H       -5.10320064      14.16347292       7.78819950       0.06053005       0.10099377      -0.00398507       0.39756355      -0.18699542      -0.07365723
H       -7.43694918      16.63103034       9.28723328       0.08352574       0.15097069       0.12633562      -0.49123189       0.44004816       0.62922013
H       -6.28841749      16.44120893       8.04498792      -0.17744613       0.18470142       0.05317570      -0.10832299      -0.38135022       0.50815201
H       -5.68767875      16.69496443       9.60770394      -0.17535125       0.18283102       0.06964214       0.63395524       0.50192457       1.07226229
C       -9.06160634      14.46824951       9.23077124       0.23044924      -0.17337671      -0.27662422       0.70021403      -1.89543915       0.74773568
O       -7.56200715      13.97332422       7.33550864       0.96043295      -0.28741599       1.50686377      -0.31160581      -0.58716446       0.05720538
C      -10.28470435      14.46904121       8.34256956      -0.17873337      -0.09783571       0.09212588       0.18332049      -0.41740394      -1.73496234
C       -9.28328845      13.45312687      10.42411956       0.74177954      -0.43799464       0.82165917       0.62449664      -0.69655973      -1.01584053
H       -8.89776812      15.41816668       9.70289002       0.07035999      -0.14323045      -0.01241587      -0.15986939       0.54585028       0.15939428
H      -11.25298758      14.44462595       8.82698598      -0.05105431       0.21017909       0.17325447       0.12937875      -0.02540997       0.52870101
H      -10.28244831      13.64306586       7.59933082      -0.01230122      -0.18331559      -0.34709135       0.13917130       0.11071882       0.85359162
H      -10.30727222      15.31841783       7.67244413      -0.31944268      -0.26129308       0.03009979       0.09890002       0.52389753       0.02438786
H       -9.69548884      12.50537903      10.03410565       0.06531682       0.16689643       0.18438764      -0.05933234       0.51874936      -0.02020139
H      -10.01782194      13.86668951      11.11755586       0.02352585       0.02330469      -0.09039412       0.40582156      -0.09098141       0.13330841
H       -8.33521066      13.10171586      10.89198520      -0.11460088       0.16111692      -0.15885009      -0.68935710       0.79109871       0.07730375
C        1.08975428       8.12211484      24.00735443      -0.05497227      -0.23416236       0.37775730       1.87428510       0.79826659      -0.60582763
C        1.72454836       6.80417167      23.45356677       0.38276347       0.36048445      -0.80990449      -0.74455690       0.81703651      -0.03313283
C        1.09073383       8.19286250      25.49584998       0.24797816      -0.65455785      -0.09455514       0.82677615       2.46160030      -0.03002667
C        1.86885071       9.35795925      23.51308575       0.54342555       1.23779214       0.07185258      -0.28689882      -0.34284621       0.96466732
H        0.09474991       8.23905102      23.61446660      -0.29395233       0.05383750       0.22067344      -0.24149458      -0.15328093      -0.25455636
H        2.79123734       6.64340922      23.68752835      -0.05225314       0.09550820      -0.05458675      -0.66863340       0.18638897       0.30275133
H        1.64101124       6.82464287      22.36379001      -0.11109010      -0.23732269      -0.10070467      -0.09635564      -0.31247985       0.15498005
H        1.05854742       6.04591203      23.88128215      -0.12537093       0.22813556       0.03631433       0.60701144      -0.37753624      -0.34281567
H        2.09724813       8.15201426      25.86729505      -0.04210540      -0.01293183      -0.11644642       0.50722754      -0.46830910       0.16562554
H        0.51033797       7.42600592      25.87507532      -0.05792818      -0.01225801       0.15171629      -1.29092717      -1.28304434       1.23979950
H        0.80259649       9.23358965      25.80718568      -0.01113329       0.16672212       0.03624546      -0.39103484      -1.19067419      -0.05187748
C        1.50389810       9.87929030      22.15809476      -0.72016361      -0.84532993      -0.88418153      -0.60547936       0.56310338      -0.58015472
O        2.75890167       9.87132539      24.18005908      -0.40677946       1.09315441      -0.45028627      -0.86556208      -0.49020168      -0.73045725