640
Lattice="206.27463156225508 0.0 0.0 0.0 206.27463156225508 0.0 0.0 0.0 206.27463156225508" Properties=species:S:1:pos:R:3:momenta:R:3:forces:R:3 mol_liquid.pdb=T energy=-963704.5 free_energy=-963704.5 stress="5.516708867503439e-08 -9.594687071512453e-07 -2.063088231807342e-06 -9.594687071512453e-07 3.087844561378006e-06 -1.1011348988176906e-06 -2.063088231807342e-06 -1.1011348988176906e-06 1.990189957723487e-06" pbc="T T T"
S      -21.50602054      62.42194094      49.20975515      -0.52556230      -1.65835987      -0.87364631       0.55477333      -0.94468021       0.10547501
C      -20.52063644      60.91680052      49.17734976      -0.67706487      -0.62249242      -0.27351298      -0.03850687       0.31205490      -0.52700579
C      -21.51152696      62.56091773      50.97181321       0.18158098      -0.06783169      -0.09289815      -0.00474241       0.98418701       0.61123759
O      -20.58182682      63.40106023      48.59148051      -0.60126615      -0.46679461       0.14778527       0.08852065       0.98715103       0.04615581
H      -19.63196973      60.82581017      49.84146400      -0.26393445      -0.11592469       0.12914248      -0.75800657       0.51822174      -0.57369637
H      -20.30332114      60.90543257      48.10686138       0.03975414      -0.10874445       0.14876605       0.45560235      -0.46144098       0.25720936
H      -21.24925146      60.17329128      49.38423759      -0.13278460       0.14871180       0.09104303      -0.32908952      -1.16535389       0.26799124
H      -20.51021312      62.69085481      51.34568699       0.01446030       0.12876353      -0.08177551       0.62270975      -0.72133368       0.01913400
H      -22.12234505      61.80704519      51.46521593       0.08909729       0.01993079      -0.07371939       0.14438207      -0.02684223      -0.19575481
H      -21.90884341      63.52940591      51.20056164       0.21718749      -0.09515328       0.06935708      -0.90988660       0.51872724      -0.03979166
S      150.72884772     240.24222204      80.95615044       0.99157747      -0.73903424       0.32085739      -1.39321291       0.39478570       1.74207568
C      152.22672564     240.97824038      81.60672873       0.26375200       0.26809897      -0.12465696       0.00574094      -0.15607671      -0.93083870
C      151.03029948     238.49023955      81.43224876       0.52268731      -0.15205406      -0.15165030       0.76258343       0.85924411       0.04464647
O      149.67509114     240.76891527      81.91587860      -0.30815009       0.47884184       0.78870336       0.44332528      -0.49456036      -1.10373282
H      152.35566258     241.97213006      81.15771039       0.02005754      -0.11198207      -0.05338373      -0.18985605      -0.33687878       0.27555442
H      153.00915104     240.32525178      81.24851538       0.05990710       0.07098378      -0.04802108       0.62575418       0.04684700       0.33411479
H      152.10482835     241.01272149      82.67950112      -0.42289660       0.12276510      -0.03219883       0.25334680      -0.04734838       0.15603098
H      150.12014877     237.96248136      81.11355591      -0.03202487       0.15890337       0.28098744       0.56035972       0.03007764       0.21932992
H      151.26246197     238.39090064      82.52634069       0.12675942      -0.25635190      -0.12901500      -0.36636901       0.16895194      -1.12954509
H      151.92351800     238.25730490      80.81396059       0.10448965       0.04565977      -0.43017294      -0.65784144      -0.46780682       0.43003052
S       94.00754178     235.01640943     114.50562985       0.28946795      -1.62852993       0.12111836       1.63623118      -0.85791314      -1.19970822
C       94.94938918     234.08044740     115.72603929       0.46947213       0.38800035       0.86478311      -1.00860405       0.08561870      -0.58711976
C       92.50323438     234.18622869     114.67683375       0.46504320      -0.11884007       0.20147428      -1.53936076      -1.23779905      -0.31577712
O       93.82315584     236.35457183     115.08286066       1.05638570      -0.13609394       0.24480465      -0.28295994       1.13616824       0.48557693
H       95.13345945     233.04138821     115.37963918      -0.06787463       0.11861812       0.08894856       0.33327815       0.92180979       0.16274194
H       94.31220200     234.03625865     116.60884141      -0.28107028       0.33812094       0.00047473       0.35140705       0.09448671       0.16678709
H       95.73222011     234.83045862     115.77842972       0.20920353      -0.08705229       0.01551184       0.90131295      -0.70336920       0.72579646
H       92.11813493     234.61417409     115.60549203      -0.31636935       0.07167877      -0.03332145      -0.48490450      -0.22814772      -0.18449128
H       92.62669256     233.07821192     114.78868553       0.13095530      -0.17693688       0.03921759      -0.05791633       1.02580333      -0.15396735
H       91.88657901     234.43280669     113.77887017      -0.05915717      -0.11707005      -0.13673240       0.21750391      -0.20389423       0.96645671
S      -29.16797321      51.22690119     -14.45188976      -0.88011539      -0.16518199       0.75642146      -0.56030953      -1.54074395      -0.65549082
C      -28.77008775      49.74103549     -13.46287895      -0.25123387      -0.34694460      -0.12733383       0.59262115       0.71498466      -0.15628439
C      -30.92054802      50.87754441     -14.76786614      -0.12339071      -0.25141835      -0.62514977      -0.09744889      -1.04707742      -0.82519245
O      -29.08857449      52.34419695     -13.52177538       0.46716128       0.70660764       0.66492144       0.01963149       1.31440818       0.92599654
H      -29.26189868      48.85686854     -13.82967582       0.18151345       0.18829653       0.14171943      -0.35617387      -0.22018817      -0.05923975
H      -28.96017413      49.94863372     -12.38765043      -0.13666630       0.15195567       0.11421529       0.13020451      -0.13420993      -0.85363257
H      -27.70692721      49.65077823     -13.71109847       0.17642539      -0.18577400       0.06789576      -0.09819439      -0.25076526       0.68824476
H      -31.48576968      50.69042733     -13.82515086      -0.09920778       0.29829774       0.11117387       0.47887093      -0.03759950      -0.87700617
H      -30.96435181      50.04202452     -15.56426593       0.12557637       0.27314094      -0.00497824      -0.01438431       1.01627779       1.62122679
H      -31.29568563      51.75632116     -15.28304397      -0.16677547      -0.07343835      -0.01538975      -0.09455983       0.18498588       0.19149426
S      166.07875905      46.94062943     183.36953719      -0.59909336      -0.52417972       1.07910549      -0.30723202       0.00340581      -0.74025357
C      165.28243685      46.36460766     184.85390901       0.04209723      -0.31466880       0.36025174       0.38560882      -0.30499887       0.68595922
C      167.40077776      45.77445616     183.19055573      -0.57995981       0.27172376      -0.54587327       1.83895087      -0.11391139       0.21583577
O      165.18075141      46.64378498     182.22976429       1.17740796      -0.66464351      -0.19274429      -0.64978683       0.13081822      -0.21546793
H      166.04408927      46.17953594     185.61344704      -0.16186714      -0.04385753      -0.06350269       0.00134512       0.26587796       0.04109501
H      164.73718069      45.43764658     184.73687897       0.17066811       0.10072025       0.17323615      -0.12243854      -0.10594061      -0.45839053
H      164.62140818      47.15960595     185.17733757       0.29757614      -0.15530299       0.16519498      -0.08431701       0.03346982       0.05989718
H      168.21923481      46.22139612     183.81749588       0.00722463       0.31690194       0.07782766      -0.37194884      -0.64914691      -0.76941282
H      167.67468274      45.73980762     182.10555246      -0.17831139      -0.12504346      -0.19184132      -0.19935763       0.43360987       1.02544332
H      167.25694763      44.73592791     183.49702849       0.29917755      -0.03169472       0.29457539      -0.51696348       0.26754463       0.15913559
S      118.81442357      74.83637323      98.37807914      -0.84347502      -0.51540235      -1.69227218       1.58099282      -1.02300572      -1.03187966
C      118.37813861      73.79894700      96.91940976      -0.33143978       1.20224185       0.61239863       1.64160347       0.54184949       0.21580184
C      120.48706400      74.11441632      98.61796316       0.77995464      -0.12421444       0.27081495       0.19643672      -1.32450891      -0.34949496
O      119.10289637      76.23045905      97.89848753      -0.29172424       0.04673556       0.22188813      -0.41739589      -0.36889112       0.09910801
H      119.19669248      73.86446721      96.15659372       0.18396619      -0.12917901      -0.19228661      -0.89417094       0.03253980       0.71932614
H      117.45841876      74.24028643      96.64420671       0.18583115      -0.18169426       0.02969837      -0.81809151       0.24007002      -0.73857009
H      118.21052863      72.77661185      97.22806639       0.08981250      -0.18148928       0.03953883       0.05817647      -0.15791796       0.12045355
H      120.51494678      72.98462217      98.61476725      -0.02869778      -0.06235084       0.00940921      -0.45621324       1.20039749      -0.11907929
H      120.82343905      74.40968540      99.59058192      -0.18235519      -0.17586903       0.08300322       0.22423220       0.39520571       0.44711068
H      121.19228828      74.46525853      97.84454634      -0.17333559      -0.09604563      -0.12661555      -0.62146646       0.06108284       0.28877914
S       74.97208161      38.77053110     131.74373633       0.67874712      -1.49884283       0.90334904       1.09681857       0.21628189       0.59897220
C       76.10601898      38.29253512     133.11420409       0.49120546      -0.90429482       0.15348793       1.00361025       0.55350089       0.14850581
C       73.48487265      38.33261415     132.62370930       0.54029824      -0.64626114      -0.13315581      -0.06399402      -0.44195664       1.31494927
O       75.05469941      40.25135972     131.55413029       0.01900466       0.10024587      -0.79716927      -0.20961532      -0.61775529       0.36132288
H       77.10528534      38.74034235     132.85088275       0.09915407      -0.24994354       0.12726625      -1.01282501      -0.54687971       0.23313850
H       76.19082015      37.18846546     133.13759730       0.07319934       0.14665995      -0.08280614      -0.16083901       0.64526969      -0.05240514
H       75.80481515      38.67895788     134.12106265      -0.00153856       0.05202811      -0.14358886       0.01817441      -0.25084856      -1.06159663
H       72.95069678      39.19814642     132.99921951      -0.09240072       0.02746591       0.17845751       0.02397779       0.19337097      -0.23010333
H       73.61712727      37.60896638     133.44616428       0.15069106       0.01492417       0.05328385       0.55289817       0.50958228      -0.24332571
H       72.94256723      37.74858229     131.94196893       0.13893193      -0.37665283      -0.13779695      -1.24300265      -0.34088597      -1.07978749
S       93.76064049     226.58595552     125.71431999       0.23399455       1.06780328      -0.43674020      -0.40133783       1.82375121      -0.75266039
C       92.20699346     226.24254604     124.90508340      -0.05827376       0.44443868      -1.03760520      -1.24735820      -2.80778265      -1.41993666
C       94.31151624     224.96660148     126.17184354      -0.08661933       0.08528201      -0.61409809       0.66945469      -0.50886834      -1.01328468
O       94.58780006     227.19278381     124.60433798      -0.92555437      -0.26376896      -1.54787794      -0.07116270      -0.74644917       0.82061696
H       92.36020242     225.55728811     123.95612223       0.02499964       0.43090578      -0.01847025       0.02760403       1.24817085       2.04095173
H       91.76863544     227.14984821     124.49616093       0.24592339      -0.04248782       0.14474510       0.21971801       0.14002699       0.34134516
H       91.44884200     225.69904805     125.56789030      -0.07276076      -0.01494458       0.27394044       1.16987395       0.85919499      -0.66146684
H       94.39826640     224.28671975     125.28734659       0.22797988      -0.05290877      -0.13755804       0.00730553       0.53554291       0.71703422
H       93.57797964     224.59740660     126.89410753      -0.15518851       0.07468539      -0.14483463       0.36245650      -0.01007733       0.02623801
H       95.30748074     225.19384073     126.61227729      -0.26299509       0.19729273      -0.01418010      -0.72397459      -0.57278943      -0.09300233
S       92.86686494     229.73450942     116.10862127      -0.33872169       0.53569221       0.98057781      -0.99968147       0.36183602       1.30818796
C       94.18959878     228.68540618     116.76550537       1.18436718       0.90669787       0.17746408      -0.18031731       0.66397494       0.06781225
C       91.72567819     229.32440920     117.50287583       0.63722772       0.65072041       0.16236574      -0.78760886      -1.30008352      -1.21756291
O       93.24303103     231.18475919     116.34465302       0.06723178       0.34369841      -0.17529955       0.14921194      -0.90197927      -0.34416246
H       94.35394070     229.09891305     117.75608839       0.11270332       0.02215637      -0.02932323       0.46884251      -0.24906155       0.06789474
H       95.00616215     228.87636675     116.08331171      -0.12210731       0.01100876       0.28201936       0.41419232      -0.20161159       0.17953511
H       93.93532766     227.62198620     116.83695920      -0.04056405       0.16597781      -0.05655843      -0.11491062       0.41245532      -0.22636342
H       91.60937643     228.19907987     117.43741444      -0.15726273       0.05224760      -0.06583558       0.37023082       1.19153166       0.48992798
H       90.70510901     229.68055196     117.25654721       0.07426822       0.08403959       0.05901280       0.78706890       0.26311815       0.14705279
H       92.09570574     229.69520484     118.46670460       0.25499808       0.18307256       0.20667424       0.00065586      -0.20754814      -0.37137517
S       86.52911592     234.88863526     124.27668838       2.15513804      -0.57409644       0.31879269      -1.60955215       0.83197469      -0.77850163
C       86.75724841     234.00435122     122.71566248       1.36042380       0.22273179      -0.18075892      -0.29017377      -0.50830150       0.77100813
C       84.93197181     234.13467586     124.62015376       0.77388995       0.37361061      -0.97214535      -1.44528651       0.38901335      -0.37868547
O       87.41340677     234.46810920     125.35942838       1.09843573      -1.43552402       0.31939925       1.25920403      -0.81056023       0.72747904
H       87.09000877     232.97184001     122.75901357      -0.12125383       0.14269111      -0.06280200      -0.23434782      -0.15656631       0.44060901
H       87.54535531     234.53577072     122.27425080       0.13839120      -0.19823676      -0.21465954       0.92057467       0.76105517      -1.11583650
H       85.81588635     234.08948137     122.17364444      -0.03334082      -0.02987205       0.04012222       0.24784394       0.13328737      -0.12832686
H       84.67900894     234.19649413     125.69147717      -0.06674471       0.15426156      -0.01689153       0.40817332      -0.15838693      -0.53404689
H       84.95776344     233.12995586     124.21935567       0.02296726       0.09661357       0.04309154       0.00541859      -0.38537192       0.51123548
H       84.10513175     234.63715211     124.05041254      -0.04646979      -0.04322393      -0.23171527       0.91885382      -0.12534438       0.44826901
S      191.79981695      43.17888058      67.93919507      -1.04192575       0.49332793       0.73005687       0.64888287       0.59987640       1.58561230
C      190.40566438      42.41430867      68.87203168       0.19089656       0.28363207       0.01798400       0.45981774       0.77316421      -1.13109398
C      190.91674695      44.19828971      66.78673820       0.57960970       0.45407575       1.32409502      -2.05797529      -0.17286660       0.45525241
O      192.48688831      44.12363570      68.92102655      -0.80641840       0.57183364      -0.77660224      -0.61222053      -0.75743985      -0.75735033
H      189.85186831      43.16570967      69.41083601      -0.07838811      -0.22857579      -0.11913702      -0.38941419       0.38712722      -0.13974726
H      190.85452494      41.76323780      69.57793525      -0.17047787      -0.00899649       0.13778491       0.57080340      -0.68707430       0.51747596
H      189.81938263      41.84706916      68.15770900       0.12710835       0.16866781      -0.08129405      -0.25558072       0.01626687       0.03756692
H      191.56773727      44.78541365      66.20610020      -0.01189723       0.19214660       0.34132170       1.20860839       0.48316246      -0.61851501
H      190.21060499      44.91918321      67.26977027       0.08225787       0.02793057       0.03182328       0.41387361      -0.94172448      -0.19583489
H      190.39973570      43.49929413      66.11086289       0.14832054      -0.09722494      -0.17934701      -0.07795642       0.38441831       0.24581471
S      -25.47567586      59.65502625      37.29924865       0.03549399       0.80391094      -0.22113238       0.16962418       0.81687480       0.27640563
C      -26.35821679      60.59557920      38.54785013       0.15595489       0.64832424       0.59205205       2.42576528       0.08483496       1.21156645
C      -26.82462747      58.78100590      36.54090341       0.50044737       1.57034614       0.36273532       0.65186024      -0.18120319      -0.44215751
O      -25.01673655      60.66527321      36.27292802      -1.15111630      -0.63792553       0.52363918      -0.39322352      -0.50845605       0.22146583
H      -26.80134295      60.01619355      39.31430662       0.14256737      -0.15875016      -0.13926865      -0.24435675      -1.18648362       0.62684500
H      -27.10001624      61.20014032      38.18777023       0.01767661      -0.21810962       0.39250436      -1.79783964       1.48254013      -1.56564772
H      -25.60331962      61.23625509      39.06546074      -0.06940159      -0.01343819      -0.12531039      -0.28018802      -0.62786502      -0.60465109
H      -26.31401644      58.08953215      35.87116934       0.02071213       0.11474546       0.26741171      -0.30839753      -0.07174382      -0.05178113
H      -27.43632549      59.46121902      35.98293067       0.01221661       0.09728521       0.16322862      -0.28431937       0.40395123      -0.22478332
H      -27.39510479      58.25414361      37.27301216       0.24142500       0.05401874      -0.05131360      -0.31040588      -0.39247936       0.49831781
S      159.74476025      42.36057385     -14.72413177       1.00733814      -2.27199883       1.98815003       1.84969640      -0.63936889       1.59597468
C      160.87339272      40.89412262     -14.12213709      -0.05269216      -0.07844389      -0.40619005      -2.00568962       0.12958151      -1.46483183
C      161.25385167      43.43115621     -14.96827902      -1.07533290      -0.67658519      -1.47099021      -1.41713405      -1.24854553       0.30709413
O      159.16663803      41.97474135     -16.01367751       0.50955943       0.33828246      -0.54737525      -0.25725138      -0.09426668      -0.89649463
H      160.19905881      40.02491231     -13.98494236       0.13422294      -0.26209497       0.01831596       0.42647001       0.64190221       0.04561555
H      161.29681017      41.22669768     -13.22622302       0.01689622      -0.35939531      -0.03299012       0.47888920       0.34631586       1.54740751
H      161.67154214      40.64449516     -14.81078911      -0.14732239       0.25991628      -0.26440092      -0.17450723       0.23533070      -0.46743897
H      161.68688274      43.56736203     -14.00824991       0.19274778      -0.03419771      -0.09945084       0.24438067       0.31780645       0.90327054
H      161.04779874      44.34438580     -15.46703184       0.17222706      -0.03412643       0.03626739      -0.33874935       0.64469945      -0.41560555
H      161.84732760      42.75951393     -15.51219134      -0.14576873       0.10063531       0.03609290       1.13534462      -0.34308538      -1.17253673
S      -17.02387545      45.98719803      70.95342734       1.96338724      -0.39163822       0.24599556      -0.37171435      -1.22999430       1.28554082
C      -15.83955294      45.13103551      72.06115980      -0.13939993      -0.49785591       0.33956574      -0.37337077       0.08166189       0.54276776
C      -15.89014616      46.62062609      69.76317711       0.80751184      -0.19963030      -0.34084253       1.48522305      -0.89719176      -0.05926278
O      -17.75871213      44.85184878      70.31764627       1.12533637      -0.53843529      -1.04691216      -0.15787101       0.27663386      -0.53610820
H      -14.99219148      44.65858367      71.55773458      -0.12535178      -0.03390446      -0.12020272      -0.13600177       0.46601123      -0.20607010
H      -16.38544496      44.32452726      72.59698066       0.13013559      -0.16640245      -0.22198785      -0.03660852       0.71134222      -0.51153946
H      -15.55355438      45.88869465      72.79042478       0.00056040      -0.01917401      -0.05888219       0.50356340      -0.16126096      -0.06124942
H      -15.34860711      45.72344029      69.40819997      -0.08765208      -0.18295261       0.09605105       0.18958823       0.54737043       0.17057544
H      -15.17888738      47.35383828      70.19840079       0.05414536       0.21345119       0.17640107      -0.83220685      -0.51666391      -0.32468921
H      -16.46500119      46.96928308      68.92968823       0.00397024      -0.00333247       0.13795518      -0.35180509       0.64043862      -0.28635532
S      124.32958995       6.58635879     120.88833088      -0.70796909       0.86782052       0.22308659      -1.04082882       2.62135410       1.03137684
C      124.76550819       5.05293513     121.52409425       0.20410952      -0.56905404      -0.23554149      -0.17481236      -2.19767666       0.31602079
C      125.88829667       7.43668613     121.01346770      -1.05654086       0.13813551       0.18531050       1.71342349       0.58732176      -0.07773738
O      124.05347287       6.55529950     119.44846107       0.73837526      -0.41143249      -0.36239795      -0.03351237      -0.77198273      -0.92965508
H      123.89793368       4.34480736     121.44651485       0.13271770      -0.08216272       0.09173075       0.92141104       0.69722188      -0.14050782
H      125.07837408       5.08957883     122.56042787       0.07871351       0.24584470      -0.06728800      -0.20369190       0.43702701       0.25085485
H      125.62587582       4.73834750     120.97832277      -0.06473985      -0.06760375      -0.17479289       0.44231319      -0.82504237      -0.58313173
H      125.66591910       8.40926725     120.53949915       0.09143644       0.05661003       0.01038069       0.23097575      -0.45783198       0.22542366
H      126.76095323       6.97094481     120.48141500       0.14545807       0.12115175       0.19616276      -1.14966297       0.10483879       0.12479179
H      126.27711517       7.63144036     122.02977302       0.06431858      -0.02836429       0.18248037      -0.70556408      -0.19528820      -0.21743572
S      175.01263326      62.09497078      47.52077205       0.71206727       1.09935727       0.55299700       1.54437041       0.14864290      -0.17269087
C      173.58360935      61.04650937      47.60004362       0.97258235       1.21330036      -0.58414471      -1.38660741       1.52226746       0.84167594
C      175.74012992      61.75183797      49.15787900       0.01834059       0.02840449       0.77491407      -3.38982725      -0.41251963       0.51218945
O      175.98109283      61.50088242      46.52611074       0.34382806      -1.41953105       0.32259624      -0.52389133       0.05360091       0.32967407
H      172.82774473      61.56602907      48.29340491      -0.06922376       0.04473974       0.01144975       1.24300599      -1.18651247      -0.59864354
H      173.78499529      60.01042617      47.75296927       0.05043354      -0.38110669      -0.26611305       0.18603614      -0.54714477       0.61213762
H      173.13550876      61.14542542      46.63855379      -0.12157164       0.08255033      -0.11230941      -0.27076259       0.07705427      -0.89630693
H      176.77198488      61.96662630      49.11670478      -0.09095802      -0.12728797      -0.03672533       0.86645484       0.11970694       0.03296167
H      175.40811663      60.71806397      49.42052652       0.03334015       0.03532595       0.00569255       0.90240204       0.67263049      -0.16145128
H      175.16609225      62.42369388      49.84758926       0.07333536       0.23504689      -0.06868526       0.78331065      -0.42093503      -0.38453504
S       67.78120502      73.36748245      70.83397980       0.07511820       0.25181278       0.50531668       1.40895402       0.43651280      -0.01213759
C       66.56457849      73.05778300      72.08790101       0.18846265       0.26829649      -0.30593911       0.02351564       1.63370514      -0.55761087
C       66.93499367      74.81109553      70.18254832      -0.41299815      -0.16576975       0.08144739       0.52624613       0.14729580       0.67821336
O       68.93762000      73.93562558      71.61405442       0.17208035      -0.28348628      -0.04421105      -0.46104014      -0.45117795      -0.46926701
H       66.32024554      74.02455171      72.47123263       0.02472155       0.08117711      -0.06869058      -0.09792432       0.56015646       0.54413235
H       67.03770472      72.52627336      72.83219112      -0.21026240      -0.04008123      -0.16684095       1.00811517      -1.37735677       1.53321338
H       65.66701513      72.62166936      71.79368739      -0.15971889      -0.14186466      -0.06080443      -1.35437024      -1.03989518      -0.87606704
H       67.52093773      75.37191775      69.43861457      -0.05858352       0.23939563       0.06593486      -0.15029180      -0.36681756       0.54154658
H       66.72511015      75.34164002      71.12136926      -0.18594774      -0.00277571      -0.02589536       0.11806376       0.52179986      -0.79129422
H       66.03160007      74.43794667      69.77405966       0.10768619       0.17418479       0.07669000      -1.02129245      -0.06420897      -0.59074116
S       97.10134551      31.69021801     115.00847185      -0.78788602       0.73969134      -0.25027484      -0.51336217      -1.56735563       0.09288710
C       98.71114038      32.37407843     115.03813005      -0.20772133       0.28608426      -0.05457709       0.26527295       1.52555931      -0.98209262
C       97.13107103      31.03980136     113.26547967      -0.10215894      -0.43694853       0.23851674      -0.52987897      -0.39929184       0.04692128
O       97.15242589      30.48453304     115.95784729       0.16395519      -1.15373152       1.34276761      -0.09637894       1.05750442      -1.11316657
H       98.76992311      33.25698759     114.35431360       0.22438948      -0.14201973       0.02207495      -0.18255341      -0.71404803       0.46804833
H       99.44602566      31.66460203     114.76491396      -0.06846675       0.02248244       0.26045785       0.60711670      -0.90558803      -0.43319201
H       98.88516900      32.70578925     116.03041977      -0.21158925       0.03091564      -0.04812371      -0.01201239       0.34015873       0.91147268
H       96.10534692      30.64230871     113.09570762       0.09468488       0.21582680       0.05507949       0.53245747       0.74061579      -0.05649028
H       97.76035888      30.15326930     113.20612037      -0.04161871      -0.00801235      -0.05686175       0.42577887       0.20209755       0.35886770
H       97.47159732      31.78014983     112.49850614       0.07338634       0.07053358      -0.07722553      -0.55222744      -0.43977058       0.88746679
S      -44.87337953     246.77751924     -18.25838338      -0.98362790       1.49374716      -0.88432464      -0.15673029       0.64492220      -0.08549967
C      -46.11549808     247.89098384     -18.95063017      -0.20694379       0.20447392      -0.44829591      -0.64741313       0.34846655       1.14051461
C      -43.94415969     246.44056025     -19.78932183       0.10976881       1.69670380       0.48244953      -1.72461629      -0.55163831       0.51603770
O      -43.95060033     247.61344610     -17.42642310      -1.04729033      -0.23644433      -0.10989652       0.00301331      -0.14990836       0.09361333
H      -46.82438863     248.17813972     -18.10984222      -0.08954493       0.02136483      -0.06994389       1.11449051      -0.42500311      -1.11511493
H      -46.62274101     247.34554079     -19.71588318      -0.23141268       0.18121921      -0.14368525      -0.59078443      -0.51958513      -0.41104302
H      -45.67992774     248.76248801     -19.42754150      -0.08627622      -0.15552268      -0.02155546       0.36365309       0.13963214       0.23636697
H      -43.43874944     247.35667990     -20.00125801      -0.01380541      -0.52568591      -0.02218431       0.40854335       0.40444243      -0.41793364
H      -44.68813925     246.11893721     -20.56102782       0.07292049       0.03602027       0.34799700       0.92185128       0.17000538       0.51833373