1280
Lattice="22.368455592412538 0.0 0.0 0.0 22.368455592412538 0.0 0.0 0.0 22.368455592412538" Properties=species:S:1:pos:R:3:momenta:R:3:forces:R:3 mol_liquid.pdb=T energy=-507497.25 free_energy=-507497.25 stress="0.005541275255382061 -0.0004723246383946389 0.0014399565989151597 -0.0004723246383946389 0.0026779244653880596 -0.0008943236316554248 0.0014399565989151597 -0.0008943236316554248 0.0035638289991766214" pbc="T T T"
C       20.62534411      -0.52212953       0.85942871       0.54082262      -1.40847643      -0.72220977       0.22096685       1.30079174      -0.34417027
C       20.80617412       0.75587892       1.72201603       0.52514144       0.38999403      -0.16779044       1.43432260      -0.69381768      -1.08817208
C       19.21941832      -0.53069601       0.20777745       0.93919955       0.09982152      -0.71320030       0.86181819      -0.94402468      -0.16086873
H       21.35251683      -0.41463966       0.08075851      -0.01308759      -0.15216484       0.32051992       0.34641409       0.02603958      -0.75005901
H       21.00714689      -1.38413760       1.40592281       0.13446873       0.12212665      -0.15313386      -0.93073279      -0.31852010       0.19805250
C       20.55262035       2.05812717       0.89429378      -0.20634809      -0.17802338       0.01068224       0.96015722      -0.00644569       1.50609446
H       21.85771934       0.63499198       2.13739383       0.10808696      -0.06495053      -0.07482268      -1.34591222       0.83644259      -0.29885447
H       20.09133585       0.71270398       2.51178979       0.08325575       0.01845034      -0.05231621      -0.41421172       0.13332908       0.93224555
C       19.19179592       2.01740918       0.27738891      -0.15058086       0.23189432       0.27538812      -0.59852946      -0.71143258      -0.50268841
H       21.32179053       2.22980571       0.14105471       0.10034682       0.19852305       0.36177479       0.00228557      -0.24103758       0.07291043
H       20.61291174       2.89922644       1.61228511      -0.00926378      -0.05071065       0.24496309       0.01748363      -0.21435525      -0.38379562
C       19.01105275       0.74641985      -0.61409906      -0.11526488       0.50480157      -0.80094031      -0.32977864       0.81414771       0.97580731
H       18.96562199       2.86063817      -0.34565465      -0.07616132      -0.32004527       0.01051318       0.36013979       0.65977228      -0.57880032
H       18.42401594       2.13171585       1.04155740      -0.19334701      -0.06733363       0.01253344      -0.08744876      -0.65995556       0.18838327
N       20.04208765       0.78080338      -1.63935170       0.24501257       0.42639933      -0.05497940      -0.45192140      -0.56753677      -2.82411361
H       17.96785755       0.82102640      -0.98975367      -0.19453097      -0.05772935       0.16502210       0.44955832      -0.41274327      -0.00354604
H       18.53469313      -0.57398897       1.04822761      -0.06626852      -0.14928358      -0.27220102      -0.62874466      -0.20832808      -0.23213455
H       19.11846296      -1.41243952      -0.48459505      -0.10666781      -0.10625235      -0.05619413      -0.13373770       0.80955482       0.89956337
H       19.87507874       1.53019594      -2.32937910       0.34935823       0.02764854       0.01023482      -0.03045012       0.20580950       1.05777669
H       19.86362397       0.01749576      -2.34723123       0.11772315      -0.33883171      -0.14088142       0.41141427       0.35032323       1.54625797
C        6.17802947      10.23139022      12.44185805       0.08498885       1.01428532       0.13580150      -1.33194232       2.70447469      -1.12900114
C        6.51979026       8.81533387      12.56024659      -0.15589596       0.08672087      -0.09457328       1.15271783      -1.00750577      -1.89468336
C        7.31212083      11.20849046      12.23233002       0.54624060       1.47155824      -0.09187570       2.03933787      -0.57709050      -0.34803173
H        5.41135403      10.41041444      11.61372618       0.08184959       0.05284572      -0.08373477       0.86100966      -0.40967098       1.00456333
H        5.75121461      10.61926754      13.33823275      -0.08738767      -0.00764027      -0.06786161      -0.98815644      -0.15494324       0.75713551
C        7.43825528       8.37558585      11.31678231      -1.10413568       0.25479853       0.36461862      -0.41063341       0.54902059       0.60482919
H        5.58454640       8.30010138      12.75054277      -0.16291480      -0.15953758       0.13172254       0.18558015      -0.70493519      -0.42631167
H        7.15826921       8.63993961      13.39192464      -0.01333870      -0.11870463       0.19604683       0.40646344      -0.03854600       1.02461576
C        8.59514399       9.43822649      11.14245186      -0.13690424      -0.81390583      -0.37201684       0.04799914      -1.77778983      -2.15223598
H        6.89140584       8.24234696      10.36120503       0.01353963      -0.33150865       0.06030783       0.06358983       0.22733949       0.59433997
H        7.86994052       7.40357024      11.56613813       0.00262518      -0.05856330       0.00895753       0.06620668       0.17721349      -0.20395297
C        8.12310315      10.84380986      10.95395925      -0.59946296      -0.05506545      -0.00531107       0.86651695       1.53023708       0.90971744
H        9.21593642       9.20090323      10.22423765       0.35333706      -0.11196488       0.23197223      -0.71777427      -0.13795161       0.92106587
H        9.27995987       9.36200989      11.96071429       0.02859124       0.08708670      -0.35447036       0.29313439       0.11201299       0.66573912
N        7.42248082      11.06488239       9.69984785       0.43287729      -0.28536011       1.20985006      -1.50240898      -2.41288900       0.01931632
H        9.04991394      11.51177203      10.84215466      -0.05020739       0.09761674       0.12552863      -1.18860996      -0.77910292       0.55077457
H        8.02671079      11.08600812      13.10115641       0.19074684      -0.15979576      -0.16215599      -0.72022831       0.38478744      -0.77200115
H        6.99746846      12.24511022      12.17202033       0.16243649       0.10266088      -0.01285653      -0.26575258      -0.14935580       0.24760519
H        6.54244016      10.46117512       9.64979210      -0.19571480       0.21125171      -0.03689086       1.76713467       1.15564823       0.04459771
H        7.09396356      11.99557883       9.70886263       0.01338923      -0.07750265      -0.00405911      -0.50377136       1.17736518      -0.22636583
C       13.41250336      11.16963582      14.95041263      -0.23886040      -0.14975789       0.62479467      -0.58289737      -0.45725614      -2.22516036
C       14.69998314      11.24548731      14.08369889       0.36009903       0.49926592       0.33670314      -0.91224039      -0.13659522      -0.84978181
C       12.51334952      12.38540382      14.68411052      -0.16892214       0.74945796       0.53306097       1.25660825      -0.05808759       0.33297041
H       12.84606297      10.19495871      14.78410407       0.12728880       0.18090453       0.13137230       0.72498870       1.22547841      -0.35839069
H       13.67670972      11.09450776      15.94886060       0.12063719       0.23482947      -0.07911987       0.51803410       0.17630410       1.97937202
C       14.30187317      11.37371125      12.55799502      -0.30264994       0.15879984      -0.75593551       1.51800799       0.11319164       0.70397800
H       15.20526220      10.32059713      14.31409267       0.02939129       0.16627410       0.03589338       0.56975716      -0.25620836      -0.41912112
H       15.38808038      12.07280482      14.33884488      -0.17187453      -0.19570341      -0.10199976      -0.53944772      -0.22248620       0.17402729
C       13.42958318      12.59301632      12.34357227       0.11080771      -0.07328745      -0.27756107      -1.20925999      -1.93901896      -0.64367479
H       13.80087197      10.46351605      12.26749545      -0.17754486      -0.04410477       0.22457821      -0.30570668      -0.18918782      -0.14408119
H       15.18523296      11.47977758      11.89080533       0.08989326      -0.06330484       0.16445615      -0.22512798      -0.28927049       0.54057473
C       12.17303491      12.51708008      13.21902535      -0.25781606       1.10734525       0.06513588       0.09192511       1.84625709      -1.61573398
H       13.05956742      12.60751518      11.29945163      -0.20115258       0.31514528      -0.03920376       0.29401284       0.03458680       0.32625252
H       13.96892063      13.48762700      12.47334892       0.03757713      -0.06484602      -0.35212834       0.47482574       0.94217640       0.52955377
N       11.30607828      11.41112955      12.71635127      -0.08819678      -0.33781822      -0.15751367      -0.65561283       1.18733537       0.42725247
H       11.75715949      13.56074268      13.01801269      -0.06045751      -0.24239729       0.14142167      -0.24972205      -1.30791283       0.62131244
H       13.13009787      13.29333959      14.95349369       0.28749382      -0.09078068       0.01359650      -0.98592323      -0.80333853      -0.13942385
H       11.64570435      12.29312025      15.32409054      -0.32119174      -0.22743933       0.16136602      -0.30703479       0.44474083       0.02211290
H       10.45741913      11.59720043      13.23834025      -0.02464904       0.06442591      -0.29063092      -0.31306472      -0.62715989       0.30302319
H       10.95250481      11.62115183      11.77436215      -0.13743541       0.03939097      -0.09056957       0.78289342      -0.02272305       0.24680716
C       19.80568048      15.55326086       8.13540757      -0.25872884      -0.30038074      -0.89089979      -2.16872525       0.35451847      -1.67222667
C       20.51957790      16.46315485       9.07906669      -0.58124997      -0.51467209       0.15511879       0.15624738      -1.95291066       1.00688827
C       20.18232416      14.09824747       8.30953076       0.80200449       0.35124436      -0.25767769       0.92617601       0.27598685       1.06031764
H       18.69265522      15.67750410       8.18652336       0.05777991      -0.07912576       0.07389907       0.67857289      -0.02257345       0.38914222
H       19.99231204      15.88162914       7.08401719       0.23817090      -0.12612030      -0.01951492       0.14792983      -0.56879276       0.61372638
C       20.29891750      15.87066682      10.49840981      -0.24891166       0.35686849       0.08661799      -0.45599318       0.90108299       0.00953074
H       20.28526962      17.48970384       8.90430046       0.23091476      -0.03241664       0.21457036      -0.38615662       0.29899821       0.40516341
H       21.56209801      16.31840724       8.84035368       0.17341949      -0.21983507       0.27909687       0.51934159       0.35855818       0.07029399
C       20.71791248      14.42976206      10.66425300       0.31293573      -0.04163096      -0.20463359       0.26345599      -0.13864920       0.89689559
H       19.23622693      15.79736895      10.70816153       0.22691460       0.11422144       0.08705827      -0.26223278       0.91215456       0.07106061
H       20.80355652      16.47416781      11.25988889       0.10996478       0.02820363      -0.07793495      -0.32489404      -0.08484215      -0.09884389
C       19.95597781      13.49350913       9.73590708      -0.12538672      -0.73091322      -1.43823156       1.21937418       0.95299304      -1.11419392
H       20.46281394      14.11151713      11.70057376      -0.12898647       0.21207840      -0.02279938       0.47164080       0.32531035      -0.45306051
H       21.81094375      14.39878069      10.52661966       0.01586986       0.17386690      -0.25982718      -0.66185182      -0.43106091      -0.02779115
N       18.59077171      13.28613992      10.11851915      -0.29031386       0.44694798      -1.63245035       1.87245774      -0.00231183       2.37864995
H       20.47120427      12.52992882       9.75429121      -0.00125673       0.15727457       0.06069255       0.04883252      -0.03402918      -0.22669384
H       21.29048260      14.15216942       8.19849320      -0.05695513       0.16476366       0.14754502      -0.62430036      -0.87337124      -0.36402842
H       19.67955978      13.48197759       7.59896916       0.06554371      -0.30556957      -0.07017937       0.06613109      -0.45239228      -0.76234490
H       18.02870336      13.05828798       9.38678667      -0.17043276       0.09095412       0.00881497      -2.02930808      -0.43093911      -2.47015429
H       18.17993018      13.92159301      10.77373279      -0.16749405      -0.04426623       0.18115459      -0.21679547       0.30073711       0.16707653
C       22.80066116       9.95514610       7.57898156       0.09170977      -0.50887373       0.24115738       2.59362507       1.91238570       0.80858558
C       23.85889580       9.41282811       6.61738650      -0.74949475       0.47962536       0.66610984       0.04153426       0.70975620      -0.86126363
C       22.23692419      11.27382698       7.01948519       0.41938838      -0.29391565      -0.27120189      -0.17610222      -0.18706079       0.90716094
H       21.98948262       9.33576129       7.79409123       0.19401432      -0.22989842       0.11668153      -1.24879050      -1.34978700       0.01475568
H       23.26070338      10.13432475       8.60347099      -0.25648373      -0.16434408       0.08468600      -0.35311067      -0.11582679      -1.20674074
C       23.22565755       9.07956484       5.23860820      -0.33098678      -0.46820495      -1.02049363      -1.16398489       0.11683717       0.07796142
H       24.40496945       8.56352416       6.99827879       0.19826594      -0.14815949       0.22929772       0.04885184      -0.32383022       0.10143847
H       24.57791080      10.23979800       6.50161140       0.02870073      -0.12460178       0.15563397      -0.11180667      -0.49321496      -0.00797972
C       22.43321739      10.30581300       4.62856861      -0.26457689      -0.17200195      -0.79673992       1.02324879      -0.69957876      -0.02259216
H       22.50108838       8.28789337       5.48849725      -0.01234802      -0.02401380      -0.07293428      -0.07540376       0.12024532      -0.28085959
H       23.86985261       8.60752081       4.46996485      -0.33562803       0.28256072       0.19969769       0.04743803       0.66486788       0.58721870
C       21.50138698      10.93488240       5.71274525       0.27193072      -0.21733510       0.35518694      -0.57124448       1.85110235      -0.45965257
H       21.87142503      10.01790511       3.72099206       0.02892961      -0.00203592       0.12194272      -0.02697340      -0.26867762       0.77941513
H       23.21640673      10.97282896       4.15486688      -0.28339797       0.02479885       0.00361387      -0.90148973      -0.04226302       1.18007910
N       20.27270384      10.17864361       5.94985248      -0.04537819       0.74838020       0.50553940      -0.39199758      -0.07661331       0.01803952
H       21.05325098      11.85032994       5.30546156      -0.10299635       0.21264596      -0.12262785       0.84848857       0.16894770       0.01680274
H       22.93084797      12.14379859       6.93604362       0.04218972      -0.04057262      -0.10996322       0.01541212      -1.00495231      -0.25916162
H       21.55451782      11.59102435       7.82280279      -0.20064770      -0.19063396       0.08477097      -0.36538279       0.17263784      -0.71328455
H       19.72197495      10.47881484       6.77886111      -0.04644786       0.02795766       0.05390031       0.95522094      -0.13758099      -0.52882886
H       20.48497371       9.21515168       6.05507658      -0.23802503       0.00687220       0.25954434      -0.04249297      -0.91189611       0.16675097
C        2.19109227      14.99747948       7.09886707      -0.39827027      -0.41282726      -0.50068396       1.68769014       1.07042825       1.49036288
C        1.98804452      15.93198736       8.32040220       0.47026836       0.78639725       0.84359951      -0.36730945       0.77713799      -0.33518982
C        1.15837468      15.21601653       6.07867418      -0.34926203       0.81775127       0.54401567      -3.37728453      -0.13595235      -0.15645097
H        3.19085418      15.18350037       6.68330701      -0.04516523      -0.12226830      -0.10766975      -0.16224241      -0.04890329       0.08051322
H        2.20320011      13.98506271       7.44419815      -0.04799014       0.12429302      -0.04924316      -0.04318797      -0.69744962       0.11788173
C        1.89937471      17.42453860       7.93172673      -0.61295084      -0.89402608       0.03846366       0.08763978       0.47661084      -0.39377376
H        2.78002209      15.87594326       9.08723504       0.02832297       0.08782545       0.03315147      -0.58656949      -0.54527104      -0.34868756
H        0.99935497      15.70403285       8.75261285      -0.09683390       0.04933531      -0.28383079       0.60193807      -0.17365631       0.09963989
C        0.88535251      17.66066137       6.80270313      -1.07499832      -0.88636376      -0.16945378      -0.39747846      -0.53616929      -0.30392933
H        2.87348000      17.79683880       7.55904738      -0.00067445      -0.21563668       0.00290256      -0.42008829      -0.13386239       0.52817023
H        1.63900754      18.01484357       8.84074144       0.02882564       0.35252324       0.26538045       0.22097901      -0.33270818      -0.73193550
C        1.06449950      16.68406407       5.62724786       0.21885483      -0.57821617       0.26995403       0.17470516      -0.04434872       0.27101600
H        0.89853465      18.61787548       6.30019207      -0.24028235      -0.02452902       0.09439408       0.42054701       0.48465550       0.53777242
H       -0.10785990      17.60402576       7.19562665       0.09375471       0.15719133       0.31000059      -0.53579867      -0.36667991       0.26340890
N        2.32831616      17.06785410       5.06468642      -0.15007810       0.84767373       0.85366046       2.81063223       0.30244198      -1.44226432
H        0.28848082      16.95347801       4.87056761      -0.11148684       0.17007475       0.11685875       0.27499938      -0.86769950       0.66410637
H        0.16035550      14.88888185       6.55097428      -0.00320597      -0.11881261      -0.20835824       1.14931512       0.44132933      -0.86553669
H        1.31189659      14.58270776       5.21152385      -0.19419748       0.12248822       0.01676407      -0.01502589      -0.12585707      -0.09203004
H        2.77851989      16.46997179       4.31424338       0.01453859      -0.14115250       0.04987297      -1.17483175       0.86833829       1.61457276
H        3.03833224      17.22821158       5.80394200       0.18264104      -0.25911913      -0.24127267      -0.78284210      -0.28294566      -1.06275213
C        1.06796003      19.24582681      18.08556519       0.57791172      -0.74324436       0.65475836       0.06742290      -0.37498218      -0.90111816
C        0.94840730      20.43086074      17.12941813       0.67695795      -0.09774111      -0.24775632      -2.26934361      -0.53622282       0.87529093
C        2.07662227      19.56495538      19.13577025      -0.16285770      -0.25444460       1.43374369       0.45905751       0.09978972       1.39680386
H        0.06806199      19.02239855      18.47143622       0.06942119      -0.18034634      -0.04005051       0.25916633       0.11077677       0.22317687
H        1.36284609      18.35931988      17.54558293       0.05506728      -0.00512220      -0.02816037       0.09083281      -0.32371098      -0.27809063
C        0.43762036      21.67190430      17.98536685      -0.01319418      -0.08585404       0.48785153      -0.17039485      -1.71430874      -1.30504751
H        0.16151256      20.06973014      16.41758416       0.16499748       0.04456447      -0.13460421       0.75980365       0.93443704       0.15530771
H        1.88166704      20.58752802      16.60846578      -0.29494084      -0.33559720      -0.01330819       0.14943305       0.30012745      -0.09821822
C        1.29581108      21.84433313      19.24530309      -0.35304567       0.32169725       0.04108059      -0.74004984       2.79453206      -0.50407040
H       -0.64818484      21.56050892      18.15313609      -0.01543613      -0.34777819       0.19575453       0.55934101      -0.41173190       0.53475249
H        0.41762489      22.48219365      17.28534281      -0.10508984       0.06185206       0.19898884       0.60847908       1.09202194       0.06995529
C        1.48373904      20.62998751      20.08450696      -0.49427666      -0.79056685      -0.34858013       0.93616837      -0.58918393       1.04532015
H        0.93039979      22.74998052      19.80058942      -0.11171325      -0.11720677       0.02751573       0.03932268      -0.99222612      -0.12059410
H        2.28633033      22.16673380      18.91924124      -0.38506574       0.16876606       0.02668517       0.07176678      -0.16908835      -0.06504984
N        0.27904822      20.11446802      20.73561872       0.31892232      -0.27420566       0.14088799      -0.26493567      -1.26542377      -0.44009101
H        2.22335002      20.84090578      20.86865886       0.30822324       0.20002710       0.07565636       0.12625144       0.19501486      -0.23698974
H        2.97228480      20.00984055      18.67161080       0.25239282      -0.08920177       0.06161116      -0.24195264      -0.25395769       0.14965579
H        2.42281448      18.69279696      19.71556698       0.17253223       0.01271373      -0.16050949      -0.24450223       0.17521311      -0.22110987
H        0.17826077      20.18650768      21.73997534       0.04764171      -0.45608491       0.17578061       0.44974527       1.03213429      -0.04759137
H        0.36637068      19.10326408      20.66820631      -0.23113763       0.12196679       0.08429485      -0.32871199       0.05726859      -0.27312094
C        0.65012853      17.97763274      12.56464166      -0.14181244      -0.05538361       1.11160488      -0.39305305      -0.65017003      -1.92204905
C        1.11528030      19.41811277      12.52238560       0.42437675       0.88034698       0.22278484       0.10658737      -0.08965956       1.03112590
C        1.60083701      16.91512882      11.93641266      -0.30018949       0.25804186       0.44773141       1.16267705      -0.04364291       3.96289587
H        0.45666295      17.76823976      13.55899667       0.33855377       0.16442213       0.22349187      -0.00457084      -0.72206938       2.08075142
H       -0.34756183      17.88108904      12.11667632      -0.00630891      -0.00823606       0.22989883       0.27083570       0.13859396      -0.23041067
C        2.52280783      19.50214538      13.12757364       1.63949112       0.13360567      -0.05992753      -0.39182225       0.26437619       0.93995196
H        0.38504361      20.03438525      13.10188507       0.01841597       0.03833524      -0.24114787       0.61188865      -0.36694372      -0.63493681
H        1.15958706      19.72590355      11.49969838      -0.39832519       0.16436447       0.15891606      -0.10203102       0.62530106      -0.67835659
C        3.45197707      18.65130758      12.31801372       0.01522765      -1.05165511      -1.41170287       0.09357167      -1.30791140      -1.21424747
H        2.51725367      19.05519686      14.14762201       0.15132656      -0.04452871      -0.01898140      -0.14943385       0.47008771      -0.48325962
H        2.85216687      20.54941790      13.24668226       0.03788309       0.13614803      -0.00752231       0.00538998      -0.48661193      -0.21848091
C        3.10489239      17.12769709      12.38331712      -0.96892464       0.64868034      -1.34739191      -0.64001983       0.60582888      -1.32155764
H        4.46632194      18.63774532      12.65737157      -0.07368540      -0.03006182      -0.06464634       0.75024676       0.76473582       0.27425852
H        3.47435857      18.92588700      11.23128957      -0.01524983      -0.06961496       0.23984371      -0.15728928      -0.09094207       0.93510044
N        3.42865934      16.65135797      13.73492510      -0.45322220       0.03076524      -0.24081835       0.01293373      -0.71810138       0.34194332
H        3.73383792      16.70451356      11.56000891      -0.06323804      -0.02637099       0.18795650      -0.26064736      -0.22617500       0.75888973
H        1.54527415      16.86225134      10.91885054       0.15027072       0.09031189       0.27076159      -0.06633911       0.40745765      -2.75402689
H        1.37525070      15.88558836      12.25427113       0.18064423      -0.13407618      -0.26250094      -0.40906593       0.46582103       0.09868582
H        4.30385420      17.08856066      14.04111104      -0.03851679       0.22310349      -0.28223483      -0.52230513      -0.49217117      -0.13945372
H        3.45884420      15.61834390      13.92791168       0.18506038      -0.11358300      -0.18346588      -0.07531627       1.64021134      -0.86533952
C        2.04811327       2.06016435      23.29383782      -0.05492340      -0.06412020       0.20005756      -1.61201501      -0.42332515       0.88117331
C        1.80478864       3.52976558      23.09509270       0.17524276       0.46321710       0.05185972       2.11095262       2.06631756      -0.46968764
C        3.47295888       1.64500938      23.10771200       0.09717392       0.04343936       0.82980191       1.98137963       0.32158124      -1.26405299
H        1.61949070       1.81605538      24.30024039       0.02164113       0.13047378      -0.03740512       0.61713719      -0.05039672      -0.71717930
H        1.46370963       1.48096591      22.55222921       0.19999217      -0.20997734       0.01043247       0.02095855       0.23438969       0.46895176
C        2.85278516       4.43645427      23.88675178      -0.55274684      -1.00631774      -0.84955341       0.48145118      -2.16408205      -0.13902529
H        0.82721449       3.86935641      23.35702421      -0.12405021      -0.06294267      -0.00004379      -0.76217520      -0.16461985       0.31125075
H        1.92748346       3.87786486      22.03747527      -0.24032104       0.26585989       0.29154135       0.14738822      -0.83069754       0.82762933
C        4.34953141       4.01018111      23.52655997      -0.44739446      -0.04332502       0.11945365      -0.19807905       1.13619316       1.59073782
H        2.65815142       4.39561661      24.98165659      -0.04336924       0.06754305      -0.36592693       0.30477765      -0.16610727      -0.75888598
H        2.70447607       5.43527375      23.58073865      -0.13237588      -0.02724524       0.24846271      -0.14812014       1.19218338      -0.33099550
C        4.60228718       2.51628979      23.83948706       0.18537101       1.82642786       0.95042140      -3.09214854       1.13515925      -1.48229539
H        5.07732054       4.63468610      24.14663226      -0.18553338      -0.04273647      -0.06615367      -0.99339986      -0.80873168      -0.41395813
H        4.64333995       4.31944387      22.51881045       0.05547322       0.13150883      -0.11053008      -0.47708458      -0.50031519      -0.11842627
N        4.40744945       2.30682075      25.24179919      -0.58740042      -0.26574103      -0.01986330       0.68165553       1.02424192       1.90353870
H        5.55592211       2.28526198      23.46034272       0.22799822      -0.09257933       0.09429872       1.26979697      -0.70892787      -0.39835489
H        3.60473380       1.66111433      21.97940256       0.09703297      -0.11558520       0.21575756       0.43674299       0.12183002       1.20066321
H        3.63659363       0.60549093      23.39199503      -0.07054546      -0.17553416      -0.18202723      -0.11333120      -0.04031138       0.08376691
H        4.94524135       2.95364266      25.84607378       0.25032969      -0.02294489      -0.17162204      -0.68956786       0.38047129      -0.91732609
H        4.90657704       1.50752885      25.51944475       0.28424821      -0.03780467       0.03153485       0.20705491      -1.92249656       0.09520449
C       10.45985901      24.58087281      16.00994832       1.62199946       0.59286310       0.77759458      -0.00873294      -1.32308984       0.35447031
C       11.72522293      24.15275014      15.36214908       0.36644904       0.51802655      -0.84304112       2.44962931      -1.90122843      -0.56581581
C       10.69263769      24.67675307      17.50274601      -0.47661130       0.34417693       0.67666381      -1.68773031      -1.35571623       0.84662944
H       10.17017353      25.54181018      15.63067467       0.29367744      -0.25503372      -0.01349545      -0.59903789       0.05664398      -0.45600221
H        9.80548169      23.75489518      15.75209392       0.25827665       0.01942323       0.02152269      -1.03114271       0.47736174       0.19106904
C       12.76730461      25.20937900      15.50249408      -0.07201110      -0.31343603      -0.49573263      -0.95437753       1.50085533       0.74586332
H       11.61459452      23.89294557      14.28243394       0.01640958      -0.07361679       0.22619204      -0.03268699       0.13463023       0.92662275
H       12.23425884      23.25578302      15.87034466       0.29207110       0.30823183      -0.03720880      -1.35535848       0.60262668      -0.58228242
C       12.96713171      25.64709246      16.95112557       0.89739715      -0.70605293      -0.15097130       0.12491716      -1.16482329       0.40700802