832
Lattice="22.10923504625649 0.0 0.0 0.0 22.10923504625649 0.0 0.0 0.0 22.10923504625649" Properties=species:S:1:pos:R:3:momenta:R:3:forces:R:3 mol_liquid.pdb=T energy=-1098310.875 free_energy=-1098310.875 stress="0.00235935440286994 0.0028079973999410868 -0.0005616173730231822 0.0028079973999410868 0.00430923979729414 -0.0016652918420732021 -0.0005616173730231822 -0.0016652918420732021 0.0035766561049968004" pbc="T T T"
C       -7.37892170     -21.69555164      -1.83206693       0.20841731       0.05080815      -0.71687944      -0.31263801      -1.59288108      -0.53177792
C       -8.35400143     -20.86725074      -1.33652028       0.09630270       0.37928883       0.70265680       1.33423305       0.58405465      -0.31796592
C       -6.06081271     -21.59503451      -1.38929817       0.31023947       0.78878560       0.16663773       1.02948081       0.07148562      -0.11271803
H       -7.69748022     -22.50623119      -2.52943974       0.14084674      -0.07170131       0.14019169       0.55486733       0.85016972       0.81714165
C       -7.93937112     -19.77890811      -0.58588626       0.28492714      -0.39067820      -0.50563028      -3.03819847       1.15992713       0.87366021
H       -9.36031062     -21.01674636      -1.58965081      -0.01447262      -0.03473677      -0.09619338      -0.95226109       0.02835683      -0.44622219
C       -6.67928852     -19.62519588      -0.13641840      -0.18465110       0.30849947      -0.78761086       1.85535717       0.44331312      -0.29266632
H       -8.71124061     -19.02613908      -0.27095882      -0.24072439       0.04294834      -0.28393097       0.83527267      -0.94087315      -0.46182382
C       -5.69256059     -20.53308457      -0.55275645      -0.62105481      -0.34372488       0.32377716      -0.58453470      -0.45812327       0.27734023
H       -6.36897091     -18.74844451       0.43359198       0.07325387      -0.13067798       0.26019021      -0.25180095      -0.24782580      -0.07916804
S       -4.07472136     -20.35085682       0.13203713       1.27673933      -0.16040864       1.21578893       0.07376933      -0.27426210       0.05502613
H       -5.30440333     -22.34851522      -1.68640979       0.09417655      -0.10269484       0.14056935      -0.65647358       0.69594431       0.15363085
H       -4.52731865     -19.77637369       1.25200519      -0.27218666       0.02443492       0.03071834       0.13622479       0.05316846       0.02223277
C       17.57261440       4.10636969      15.26284741       0.18646298      -0.12131452      -0.21279017       0.10297078       0.56510949      -0.38197017
C       17.45821113       2.76038887      14.89996354       0.19385667       0.87477948       0.74768834       0.41609964       0.25687057       2.03218246
C       17.08843210       4.57393261      16.48741518       1.38467006       0.06949729       1.15912486       0.03305105       0.88718909      -1.72255981
H       18.08226122       4.82408143      14.61586496       0.03112792       0.09919045      -0.18881434      -0.26764676      -0.28235981       0.09834249
C       16.95445911       1.91081014      15.87676543      -0.84389088       0.02192710      -0.07753823      -1.61961746       0.09276465       1.06167293
H       17.95825535       2.31134105      14.07658302       0.34427622      -0.09958056      -0.06809803       0.05487794       0.11265479      -0.76354712
C       16.38760126       2.36651623      17.11661439      -0.26090355      -0.10354533       0.44888449       1.52050495      -0.79186141      -2.13938951
H       16.92796480       0.84304922      15.71531323      -0.01605964       0.03833009      -0.12683733       0.19442508       0.03820913      -0.20510027
C       16.49387802       3.72081630      17.36488248       0.07995209       0.11431123       0.40141458       0.22331142      -0.39502877       2.22301912
H       16.11601059       1.58427979      17.81776837       0.26521487       0.16264643       0.13446181      -0.28613138       0.53713667       0.14627121
S       16.34735493       4.39418164      19.03518501      -0.15248608       1.95284989       0.59119280      -0.71242988      -0.86900824      -0.58468544
H       17.08118065       5.64048676      16.73834958      -0.06943924       0.07686773       0.23424260       0.44382736      -0.45775375      -0.22116943
H       15.49947565       3.41691521      19.38187404       0.18308399      -0.04452159       0.18234496      -0.03493416       0.11870778       0.44059080
C       21.72035696      14.66482347     -12.59623867       0.39082100       0.09704664       0.88822445      -0.50410664       0.39943206       1.62536442
C       22.18996793      15.77164225     -11.83428620       0.90122255       0.26073205      -0.65764358      -0.07984260      -1.06635273      -0.44992539
C       20.76822024      13.76741336     -12.07470389       0.64547927      -1.31052261       0.38797988      -0.24725546      -0.74248731      -0.35325181
H       21.98570767      14.48029499     -13.60030262       0.27121455      -0.16159811      -0.04970295       0.63469607       0.13378856      -0.90763104
C       21.69772544      15.89302983     -10.52550998      -0.94043122      -0.46360712      -0.29306301      -0.97239554       1.25766754      -0.32842159
H       22.90766839      16.50515195     -12.26315497      -0.14791852      -0.14061841       0.24953681      -0.68830824      -0.72484624       0.43806589
C       20.67680127      15.08502747     -10.05728598      -0.68352677       0.13100017      -0.13832642       0.03474101      -1.22180390       0.03463820
H       21.84250930      16.79226697      -9.91917630       0.07471810      -0.16947969      -0.00708863       0.60092765      -0.65834183      -0.42713678
C       20.24205675      13.95589139     -10.80090535       0.00441225       0.26008803       0.57658399       0.67257583       1.81758904       0.51830000
H       20.24612710      15.27036557      -9.06199703       0.16419178      -0.25471965      -0.12998040       0.26222256      -0.10874744      -0.55169284
S       19.00603775      12.98211414     -10.03057867      -0.38310217       0.42496990      -0.26976193       0.40117541      -1.76138878      -0.69640499
H       20.38923065      12.89051224     -12.67169137       0.09977995       0.10845075      -0.15243397       0.68047982       1.16110253       0.65436149
H       19.56479350      11.78736621     -10.48930051      -0.03912459       0.09847219       0.31197008      -0.72982663       0.90005755       0.51303685
C       11.57610843      -5.14624994      -4.01276120      -0.72785968      -0.30068648       0.61839210      -1.51034153       0.31293404      -0.77764040
C       12.08729908      -4.99849949      -5.29762841       0.45458469       1.37674305      -0.50094688      -0.24250157      -0.10526865       0.74822479
C       10.29633807      -4.62040092      -3.69834724       0.00644215       0.59378647      -0.04385614       1.95708799      -0.38838932       0.51243550
H       12.06286732      -5.73440735      -3.27127507      -0.17062331      -0.09417807      -0.35528317       0.39178360      -0.15325351       0.32804367
C       11.31316553      -4.26775111      -6.21854191       0.31411075      -0.10116021      -0.47390877       2.52448940      -1.24810624      -1.71169496
H       13.05656452      -5.48179805      -5.48223267      -0.36892073       0.00054831       0.16271610      -0.67806149       0.56709087      -0.49436155
C       10.14416255      -3.69352666      -5.89068115      -0.57068447       0.84339988      -0.27678985      -2.11148357       1.44366074      -0.73029590
H       11.63654962      -4.24415030      -7.27873808      -0.00093706       0.16474048       0.11526073      -0.06774664       0.21921399       0.84397006
C        9.63197524      -3.86172237      -4.62812448      -0.14247115       0.52218229       0.28113789      -1.19777882       0.32318696       1.63628840
H        9.54780230      -3.09592584      -6.60723207       0.14114060       0.14392268       0.07395120       0.62548482      -0.56101078       0.31458241
S        8.08168750      -3.17585759      -4.00424890       0.20893454      -0.11385389       0.11884526       0.38824350      -0.50442588      -0.31466705
H        9.96629612      -4.73447254      -2.67181317       0.14282553       0.18394632       0.02405493      -0.27270988       0.08154292      -0.29417706
H        8.01341834      -2.11642912      -4.79363498      -0.00900244      -0.06738380      -0.09518339       0.08374427       0.27377528      -0.33076000
C       -3.45134845      27.68643795      23.82563419       0.29122000      -1.54188575      -0.38837330      -1.47674274       0.41730422       0.22812176
C       -4.73380717      28.22775869      23.99692318       0.06732002       0.61257505       0.32040633       0.32704303       1.05007648      -2.49513602
C       -2.88182294      27.56029959      22.60103146      -0.22384815       0.29306588       0.47633220       0.94484186       0.06036913      -2.64931202
H       -2.83711879      27.39152692      24.62106537      -0.40573104      -0.00212325       0.00079611       0.33733231      -0.55110908       1.32077575
C       -5.35442965      28.78249303      22.83425411      -0.09434629      -0.19282316       0.01831958       0.23296501      -2.06971478       0.40893939
H       -5.23421050      28.25978110      24.92170695       0.05568295      -0.19350451      -0.04152084      -0.27530748       0.14752123       0.98857749
C       -4.79138490      28.57480583      21.57967473       0.64547111      -0.42929893      -0.77382354       0.28996849       0.21385768       0.03517560
H       -6.36953691      29.13857280      22.77409286       0.01720808      -0.11267644      -0.25079348      -0.10788193       0.27385065       0.72681928
C       -3.51186150      28.03192883      21.42248412      -0.10629388       0.27690454      -0.18109774      -0.55584621       0.36021546       1.50778699
H       -5.36475524      28.86956916      20.70672065      -0.00470102      -0.14898851      -0.18243199       0.20780309       0.18429798       0.11479042
S       -2.80469237      28.26280943      19.84431627       0.50762804      -0.43970557      -0.27034697       0.99007070      -0.73319048      -0.17444468
H       -1.90119741      27.08349106      22.49763887       0.30926028       0.16296877       0.15220969      -0.28151035       0.32441568       0.17495538
H       -1.58558456      27.70620775      20.09942691      -0.12340315       0.03249452      -0.16048223      -0.61823416       0.19533770      -0.17134339
C        9.53824294       3.18041516       9.52657557      -0.11718442       0.05903585      -0.77956206       1.46345162       1.36261058       0.17900555
C        9.52842845       1.90863057       8.99296718       0.50247559      -0.17427035       0.46588220      -1.04660189       0.03884763      -0.17422241
C       10.62503427       4.09529510       9.10922333      -0.98694194       0.28713360       0.25557825      -2.87762356      -2.13265800      -0.09241521
H        8.79230400       3.40712197      10.31097563       0.04726667       0.29525846      -0.00484236       0.67747098       0.37234187      -0.67139894
C       10.50351905       1.54719507       8.09838984      -0.18970225      -0.28704604       0.82759653       0.88186145      -1.89338279      -0.44742846
H        8.72520025       1.16993992       9.12357268       0.00993159      -0.15185518       0.09771542       0.31569827       0.70015204       0.43196994
C       11.53196183       2.38553475       7.72998872       0.72577853      -0.92355428       0.67993804      -1.70690227      -0.24658313      -0.17213506
H       10.47610817       0.50478585       7.70853994      -0.00570951      -0.22713831      -0.08064403       0.15013629       1.01506996       0.22354746
C       11.46871295       3.70859113       8.09688600      -0.24742836       0.67820864      -0.39170433       0.75930864       0.30871165       0.71673894
H       12.18404986       2.06886815       6.98856161      -0.10491270       0.15557548      -0.27082962       1.28567386      -0.59417582      -1.13108265
S       12.54141579       4.91224711       7.35545301      -1.60956299      -0.05084901       0.42105226      -0.35523373       0.38883421       0.36498523
H       10.67653739       5.10639557       9.37448587      -0.03423960      -0.10619647       0.02195538      -0.34776139       1.15708423       0.88542712
H       13.36189193       4.01698158       6.85569832      -0.13574961      -0.08113177      -0.09177602       0.44886580      -0.33912438      -0.39368132
C        9.63448421       6.26959241      -4.99754131      -0.72014853      -0.93192671      -0.88999314      -0.21096733       1.09215426       0.20025319
C        9.48615474       7.02852791      -3.85072497       0.05655113      -0.49379986      -0.26671841       0.93032920      -0.62774879       2.46516514
C       10.62821260       5.33045175      -5.08151962       0.95709323       0.22002872      -0.51671597       1.70224166      -2.13314509       1.27888048
H        8.96099998       6.52189691      -5.78484444      -0.23286582      -0.10843792      -0.44538947      -0.07307947      -0.20909010      -0.78889930
C       10.22749838       6.72688887      -2.67008879      -0.42087719       0.42533078      -0.56571829       0.33279455       0.14444837      -1.33854306
H        8.75185317       7.78735723      -3.69399827       0.26145969       0.17543688      -0.07207372      -0.39471230       0.27933636      -0.59704649
C       11.19812466       5.72803073      -2.70904195      -0.04901882       0.75458827       0.11520105      -1.54994059       0.51621723      -2.76081824
H       10.08786511       7.29508774      -1.75260642      -0.16099750      -0.13541273      -0.04446284      -0.12597975      -0.15766487      -0.42280203
C       11.41124962       5.03425775      -3.91302280      -0.04160323       0.20478556       0.07367785      -0.71770734       0.35351786      -0.56531298
H       11.76981613       5.50726862      -1.89153971      -0.05620954      -0.15313796      -0.13780382       1.24299490      -0.58527523       1.99597740
S       12.60718506       3.68263595      -3.98554551      -0.94078052      -1.14348224       0.69523335      -0.49497300       0.50650024      -0.05073631
H       10.85233601       4.64170825      -5.91805879       0.13548970      -0.18236247      -0.02085051      -0.57495147       0.92755949       0.25760400
H       13.57510002       4.36818947      -3.37149001       0.13853168       0.16448255       0.18956822       0.14636368      -0.00493118      -0.03230533
C       16.02991590      14.34109305      22.91575507       0.26548916       0.26071256      -0.18328211       1.20172799       0.93571407       0.09323491
C       16.39177584      15.57686994      23.43895744      -0.68263934      -0.04709043       0.60460203      -0.61764437       1.79254401      -1.81822062
C       16.42127133      13.89352501      21.66620972      -0.53821739       0.51571103      -0.73127059      -1.18269837       0.91546494       0.62739217
H       15.49839096      13.74908628      23.57239512       0.11239906       0.17104783       0.04215246      -1.10522163      -1.53246605       0.96942806
C       16.99105418      16.52393036      22.57126946       0.50142986       0.59131738       0.57454990      -0.33005297      -3.86222053      -1.47311497
H       15.98158879      15.94888824      24.37289359       0.18783171       0.00566766      -0.10446360       0.31559703      -0.43543750       0.10742056
C       17.37000235      16.06448507      21.27125400      -0.85399157      -0.85168664      -0.41597400      -0.93734878      -0.63207960       1.99783480
H       17.13859415      17.49528142      22.86358839      -0.25549939      -0.28165140      -0.17214929       0.53841805       2.11043453       0.63195997
C       17.04913489      14.77167261      20.82443569       1.04333329       0.27516998       0.74790742       1.89738381       1.06469679       0.84050620
H       18.01646595      16.60051789      20.64551844       0.00672243      -0.01604167      -0.23729854       0.51034206       1.17441106      -0.72284782
S       17.94959934      14.21158373      19.41369080       0.77132005      -0.34231240       0.59827743      -0.74881285      -0.16308725      -0.49669981
H       16.06980471      12.96767153      21.31195794      -0.08677822       0.14203978       0.04369706       0.04677626      -1.14253211      -0.25672850
H       16.81822252      14.00917630      18.72285470       0.07983730       0.13441325       0.01987146       0.25363195      -0.20068598      -0.41430992
C       17.53076552     -12.54388519      20.68548751      -0.49500319      -0.10821384       0.16300180       0.44988135      -0.52756679       0.58424908
C       16.29780948     -11.95507893      20.78269219      -0.52206086      -0.76203691      -0.30520531      -1.21771109       0.82398534       1.16153252
C       18.18047540     -12.56860272      19.45773565      -0.09613686       0.19358797       0.07177611      -0.93462276      -0.40731263       0.59824896
H       18.03269452     -13.03782166      21.51798545      -0.07171726       0.04847522      -0.00049733      -0.38733393       0.28736654      -0.11223430
C       15.71024976     -11.34492937      19.66931337       0.08316835       0.76884475      -0.67909164      -2.07421184       0.41663978       1.53444409
H       15.71083475     -11.86881034      21.73329098      -0.14650121       0.07869207       0.14404959       0.93069839      -0.39289156      -0.85944796
C       16.30047136     -11.38613023      18.45539913       0.21071081       0.08853811      -0.11900318       1.11758161      -0.10276872       0.25835925
H       14.71460121     -10.81316229      19.80939502       0.34945399       0.25465024       0.05319395       1.41469240      -0.83313859      -0.29216528
C       17.55804606     -12.00951171      18.38358821      -0.02009095      -0.21960008      -0.83445773      -0.04843199       1.02938294      -1.77820683
H       15.82358365     -10.84923792      17.67435153      -0.08209706      -0.14823470       0.15467881       0.10470984       0.05343843      -0.89827204
S       18.56704782     -11.82689328      16.91697864       1.67204616       0.01989834      -0.11776598      -0.35560715      -0.34479475      -0.46901456
H       19.05024617     -13.16312328      19.33675932      -0.00764088       0.07223720      -0.09967970       0.83938342       0.03936180      -0.04039250
H       17.66653223     -12.23746868      15.99713300      -0.23194366      -0.00285466       0.34983996       0.24169019       0.15785150       0.27117839
C        7.03072307       9.38437122      19.73161145      -0.10001461       0.16834883      -0.55074878       0.01858872      -0.71537077       0.01800504
C        7.06846836       8.11294015      20.30535116      -0.66308020      -0.16821618      -0.21345725      -1.09234571      -0.16901016       0.44303674
C        7.75724275      10.41022069      20.26498686      -0.44943700       0.28825054       0.27905946       0.52767760       1.95222521       0.11171368
H        6.46116205       9.56459383      18.84061733      -0.10615983      -0.38406685       0.02200280      -0.33303279       0.01953386      -0.16538590
C        7.79164134       7.90051074      21.47230227       0.38289479       0.48323689       0.09070657      -0.24784270       0.19001469      -0.91047609
H        6.37448396       7.35601355      19.93725867      -0.23651484       0.00898961       0.13948577       0.56678009       0.02344118      -0.09913436
C        8.51471260       8.95099402      21.98929801      -0.11108619      -1.10243505      -0.57700674       0.92525780      -0.38189545       0.74389088
H        7.88469102       6.93999768      21.94709940      -0.00192949       0.08315017       0.10675729      -0.30889881      -0.13407150      -0.05747631
C        8.55385680      10.19556229      21.40774550       0.03517465      -0.24684040       1.09568477      -0.38508344       0.34522185      -0.65339375
H        9.09715050       8.73150430      22.87076180      -0.00045764       0.20652838      -0.07724612       0.12436445       0.31135687       0.16266204
S        9.54691914      11.50786774      22.10634710      -0.30290513       0.92294612       1.45614069      -0.13194889      -0.57146913      -0.28065866
H        7.64016661      11.44339359      19.82147659      -0.07100154      -0.14440306       0.12967713       0.42135701      -1.35025966       0.56092757
H        8.51469511      12.31582858      21.98510551      -0.19792768       0.08405953      -0.13784576      -0.16068850       0.79381573       0.14279117
C       38.02509929      18.16596253       6.94130323      -0.27702924      -0.15104582       0.20612607       1.08596897      -0.04455926      -0.15704413
C       36.92731453      18.07705528       7.76827174       0.40831693      -0.41724869       0.06540983      -1.23738289      -0.35412174       1.41660476
C       37.85684862      18.26153114       5.56470312      -0.83231389      -0.45005775       1.37281727       0.88743162      -0.43588144       0.39136729
H       39.05806366      18.09222394       7.32174213      -0.07094088       0.02342362      -0.01090854      -0.89772570       0.21851543      -0.03556120
C       35.62991202      17.98190791       7.26121800      -0.18088716       0.52931396       0.30118860      -0.40764421      -0.48417014      -1.02633703
H       36.97260454      18.02512384       8.86606807       0.21492882      -0.11970917      -0.17126716       0.60053438       0.03820015      -0.60152203
C       35.49177238      17.97389411       5.84928419       1.00125682      -0.21802446       0.02829382       0.58262765       1.25146794       0.88573033
H       34.73967210      17.83405178       7.93609708      -0.22448281      -0.02954199       0.03096449       1.14782870       0.29813069      -0.93740797
C       36.59796760      18.21478707       5.02647005      -0.06668992       0.07237457      -0.65420289      -0.58232886      -0.60072839      -0.50563300
H       34.55727770      17.99434011       5.35067342      -0.01149463       0.06413083      -0.23284719      -0.95802963      -0.34975308      -0.02112350
S       36.34718041      18.06491358       3.24927345      -1.14842012       0.28210370       0.23270248       0.09475055       0.35429305      -0.32037610
H       38.73700371      18.22065926       4.93453650      -0.24004124       0.00591832      -0.00002896      -0.12897003       0.32118240      -0.06305294
H       36.92693448      19.19573024       2.70997830       0.19529352       0.15039034       0.13193364      -0.29202360      -0.58850825       0.83122694
C       -2.88615706      16.37744371      25.39119147      -0.19385253      -0.98907056      -0.22335522      -2.69489479       1.01161969      -1.77088141
C       -1.87901840      16.83165940      26.19163267      -0.56605249       0.18550913       0.53183633       0.72530919       0.08002164       0.57532394
C       -2.90949924      15.07977662      24.83651803       0.21597644      -0.02726915       0.38619543       0.91353172       2.08630204       1.84360266
H       -3.75602353      17.08741007      25.13101583      -0.22026566      -0.18983339       0.35030872       1.57152677      -1.17072439       0.32656759
C       -0.91358383      15.92968510      26.63245086      -0.28798057       0.52949241      -0.62156589       0.19082952      -0.51089245      -0.24698569
H       -1.80622091      17.86424101      26.49977278      -0.29553202      -0.21354521      -0.17068080      -0.25994235      -0.08884119      -0.12710169
C       -0.94725464      14.62915105      26.14031570       0.06230675      -0.06257213      -0.64773682       1.47812700      -0.02703383       1.33987558
H       -0.16264540      16.20575648      27.37570150      -0.15783927      -0.08354332       0.17906085      -0.14365572      -0.02032859      -0.44743192
C       -1.92475183      14.24803562      25.24244475       0.50676578      -0.16500097       0.79415526       1.29152620      -2.34997892      -0.32167941
H       -0.17363355      13.93918960      26.54722710      -0.06550941      -0.08970867      -0.10158043      -0.88391495       0.39127183      -0.69359720
S       -2.07872778      12.53035596      24.64474796      -0.41910594       0.55971803       0.56460124      -1.44398975       0.46743348       0.92626315
H       -3.65608043      14.71786262      24.22913147      -0.16576775      -0.01946663      -0.16207255      -1.47230029      -0.33036447      -1.26277399
H       -0.86229621      12.10388277      24.47104323      -0.11840670      -0.11000358       0.05991545       1.23056173       0.35214275       0.03179342
C        5.52477919      25.56075762      14.94104056      -0.70847218       0.18227334      -0.12918952      -0.06923807      -0.07208888       1.57985735
C        6.35353733      25.71625953      16.02985964      -0.89057982      -0.22017268      -0.78613353       1.24950182      -2.57742620       0.31489566
C        4.67917272      26.58141588      14.68363973       0.09103670      -0.86015787      -0.22957474      -0.97186846       2.77820134      -2.28204560
H        5.45818209      24.60855920      14.49243354       0.04941983       0.21192611       0.34297027      -0.10422266      -0.45534128      -0.65388197
C        6.45281894      26.89695801      16.68998624      -0.19822467       0.59090826       0.29312590       0.91346282       1.53349674       1.36940515
H        6.94628444      24.80237390      16.30766954      -0.09757087      -0.00113637      -0.37440016      -0.43899727       1.29884994      -0.00513695
C        5.70686593      28.01272798      16.31508352       0.34684226       0.21332710      -0.77275278      -0.51264071       0.25981504      -0.72403240
H        7.15254135      27.04480701      17.52928361       0.01422139      -0.02363043      -0.21629598      -0.42494345      -0.36047634      -0.68614000
C        4.73665929      27.86168809      15.30321254       1.20432767       0.65379860      -0.30458651       1.39122200      -1.20509613       1.24672318
H        5.93585029      29.00390774      16.73304939      -0.09019166       0.22766257       0.32511056      -0.41218603      -0.63627279       0.03466815
S        3.67342186      29.18980231      14.87314095      -0.88700674      -1.18026631      -0.06715428      -0.64506936       0.57835293       0.54974550
H        4.14164920      26.59877149      13.73619443      -0.02806124      -0.13514296      -0.06591489      -0.53049493      -0.53976345       0.47540402
H        3.00426351      29.35177311      16.09486301      -0.09025850       0.03375736       0.21243961       0.79202104      -0.26284316      -1.18030488
C        1.26679848      15.95746617      15.50569939       0.10697137      -0.74218189      -0.00691968       0.34122935       1.49464118       1.12221432
C        1.24399189      17.06673355      16.40203991      -0.65149728       0.60264176      -0.66585967      -0.15133950      -1.70516396      -1.27612531
C        0.43377106      14.87374614      15.74525369      -0.03326705      -0.16715269       1.19964936      -0.20757587      -1.80055857      -0.66763574
H        1.99400323      16.10880654      14.69501619      -0.05651900      -0.09685135      -0.13718796      -0.56742013      -0.95926023       0.18965116
C        0.32994654      16.99950505      17.43357737       0.58676675       0.37013730       0.70793181      -0.10708347       1.30949616       0.63973135
H        1.95209742      17.86948523      16.18798685      -0.14778741      -0.11566702      -0.00209504      -0.59523988      -0.05152204       0.50193298
C       -0.55698934      15.97143680      17.67718232       1.16669350       0.11821285      -0.03203797      -0.00330300      -2.05201554      -1.69249177
H        0.19787513      17.86789882      18.04516780       0.23034078      -0.21556021       0.13481062       0.16575609       0.24555390       0.44525319
C       -0.53124343      14.84223964      16.81739105       0.90943481       0.20916133       0.05021207       1.23676324       1.51879561      -1.08303118
H       -1.30772599      15.98271764      18.43645797       0.15265882       0.08700107       0.18990178      -0.12566207       0.35174084       0.46606880
S       -1.76609696      13.58562668      16.69563863       0.17832045       1.67217811       0.11011925       0.73645759      -0.12904096      -1.57458103
H        0.54951093      13.95446043      15.06776853       0.12763489       0.08360656      -0.16760326      -0.46089390       1.52710986       1.03312063
H       -2.20454651      13.55431606      17.90005785       0.04234775      -0.16052230      -0.06092466      -0.31332594       0.12093540       1.58069003
C       23.74940450      11.88880338       6.59258654      -0.29190822      -0.21575688       0.04540873      -0.21658760      -0.02494796       0.33999532
C       22.92112310      11.49885142       5.55422343       0.51668205      -0.79077169       0.23072666      -2.47243667      -0.80509073       0.62118894
C       23.50044986      11.53821347       7.92409330      -0.65913026      -0.05486896       0.25375475      -0.70280087      -0.82495749      -1.03982341
H       24.63254292      12.43110273       6.29895923      -0.20917236       0.11498538       0.33483735       0.25196001       0.19590639       0.40446323
C       21.77269970      10.75088156       5.87344258      -1.17001566       0.10833621      -0.42477807       1.81421161       0.03373671       2.28449535
H       23.01803393      11.80023109       4.53376545       0.09743595       0.05588681       0.19264896       0.69830769       0.06481139      -0.39098299
C       21.49465627      10.38480936       7.24741361      -0.42860509      -1.11066155       1.23061647       1.73653746       1.40516639      -3.82729912