704
Lattice="20.528355158800984 0.0 0.0 0.0 20.528355158800984 0.0 0.0 0.0 20.528355158800984" Properties=species:S:1:pos:R:3:momenta:R:3:forces:R:3 mol_liquid.pdb=T energy=-432678.4375 free_energy=-432678.4375 stress="0.005722740199416876 -0.001751439180225134 -0.0017917640507221222 -0.001751439180225134 0.00019205769058316946 0.0016928731929510832 -0.0017917640507221222 0.0016928731929510832 0.005447099916636944" pbc="T T T"
C        3.68718966     -13.54242688     -10.61741188       0.35519501      -1.14520962       0.63555982      -1.04585433       1.78647017      -0.81788170
C        2.92386806     -14.24351230      -9.70498222      -0.57582831       0.46138990       0.01302479      -1.23485374      -0.56825328       0.59537834
C        3.57331287     -15.15775256      -8.91171314      -0.26492337       0.19091393      -0.75270627       1.78693342      -0.61104405      -0.38658869
N        4.87523927     -15.54442029      -9.22299144      -0.85115781       0.14442335      -0.02713481      -1.95775628      -0.11256319       1.56462359
C        5.52648489     -14.90240646     -10.15902497      -0.29530149      -0.89368627       0.47194216       1.36472690      -1.14125490      -1.07880652
C        5.01535679     -13.83980012     -10.85638268      -0.06434316      -1.00835326      -0.15890210      -1.23975348       1.62847400       0.12523033
H        3.18549162     -12.65137857     -11.07911530       0.29513289      -0.09843087      -0.17720938       0.67308593      -1.01295233       0.07898303
H        1.80952460     -14.16691578      -9.58713256      -0.01496756       0.14862604       0.05777868       1.40041721       0.51518404      -0.11096713
H        3.08377117     -15.56437265      -8.01340582      -0.10145419       0.13119958       0.36707577       0.60113823      -0.24126151      -0.70378292
H        6.49022433     -15.33215722     -10.52045097      -0.06478051      -0.02332506       0.08008427      -0.58247936       0.54966593       0.82475126
H        5.57385907     -13.14310246     -11.46616706      -0.24925005      -0.16727873      -0.02777499       0.27651423      -0.56471521      -0.23775388
C      -18.84839962     -18.61465831      17.45138054      -0.47254284       0.13139813      -0.26379713      -0.62439108       1.65087533      -0.05203900
C      -18.01932736     -19.28308823      16.63070184       0.41388450       0.34573848      -0.50157314       0.39597696      -0.82769698      -1.24997544
C      -18.38983377     -20.60976819      16.26690090       0.74208139       0.26154638       0.76601186       1.31311965       1.66969800       0.50992835
N      -19.45486220     -21.19407368      16.69182200      -0.20724557      -0.37460299       0.26729575      -1.69116426      -1.05276787       0.85309243
C      -20.32009251     -20.51049855      17.51576640       0.18158555      -0.22180799       0.14751472       1.10336745      -1.77511334      -1.58946609
C      -20.05056763     -19.24704435      17.84099920      -0.12712633      -0.69209012       0.15093276      -0.05266073       2.74406624       2.10093975
H      -18.60293573     -17.53163252      17.63090065       0.02647868      -0.21196131       0.14770216      -0.61729836      -1.29696131       0.27497590
H      -17.18706768     -18.77584761      16.14460463       0.06294823       0.24527942       0.00594622       0.02957946      -0.35583800       0.31497288
H      -17.69311623     -21.14532581      15.66346892      -0.32382904       0.07299168       0.13568991       0.13610928      -0.59455174      -0.56401467
H      -21.18937893     -21.06286529      17.84203281       0.10257334       0.21082307      -0.14730177      -0.05973677       0.17667075      -0.02173506
H      -20.70236207     -18.69709288      18.53216122       0.02468193      -0.18212961       0.12439125       0.12832113      -0.32335305      -0.44397834
C       19.74575473      -0.89919045     -12.45466816       0.15051152      -0.77766961      -0.70026242       0.72411841      -0.16453111       0.39817223
C       20.90780847      -1.35386942     -11.84359397       0.28803591      -0.26262770       0.36009845      -0.18092930       1.11454237       0.66617036
C       21.20742696      -2.69441837     -11.82604720      -0.44853545      -0.20027134       0.17622790       0.48798579       0.56245220       0.19429034
N       20.42789637      -3.60531577     -12.37170643       0.02650461       0.14616487       0.99331183       0.23266822      -0.65897226       0.06021369
C       19.33216560      -3.18547118     -12.98178573       0.24849764       0.50891296      -0.28136885       0.61316884       0.89412022       0.48467535
C       18.97265634      -1.85071302     -13.05295525      -0.31833699       0.00725462      -0.85626748      -1.94413233       0.28539586      -1.50471163
H       19.43839377       0.13229530     -12.45785074      -0.12630917      -0.12035654      -0.05055914       0.09825148       0.11865543      -0.03975659
H       21.53346448      -0.67272293     -11.28249306       0.07981089      -0.04447031      -0.13600438       0.12552047       0.03217879      -0.22312930
H       22.14231728      -2.97566467     -11.35282556       0.05319732      -0.34380590      -0.05964678      -0.17850694      -0.48710471      -0.00995716
H       18.75487133      -3.94470526     -13.40563666       0.08769609      -0.15229863       0.19169115      -1.01378286      -0.94545192      -0.74079478
H       18.07574352      -1.51713907     -13.64719934       0.19205961      -0.00999213      -0.01997064       1.00258112      -0.62027800       0.92199063
C       19.70940911      11.87392745     -19.21501448      -0.30671221      -0.01313890      -0.21351962       1.11783004       0.80399746      -0.92367226
C       19.75265832      12.42487945     -20.52000911      -0.53208445       0.72764405       0.09243311       0.05572804      -1.14085400       1.81267047
C       18.59860921      13.11751902     -20.87984276      -0.23343266      -0.15359925      -0.77320312       1.83333659       0.50211585      -1.40086353
N       17.60840134      13.40122265     -20.08964605       0.21833269      -0.68239536      -0.50548474      -2.32554364      -0.24425587       0.55636078
C       17.54000059      12.81946313     -18.90062078      -0.10685199       0.54327244       0.01603900       0.29826865       0.84999025      -0.09399396
C       18.61307184      12.10591048     -18.44246790       0.49574164      -0.04533638       0.76007477      -0.61625934      -0.55040240       0.78712386
H       20.54083778      11.37467940     -18.71520318      -0.21975147       0.11566884      -0.15219691      -0.00901690      -0.01593900      -0.67179042
H       20.66796594      12.25066860     -21.09103452       0.41543575      -0.06232241      -0.00724857      -0.77548063       0.32141107      -0.27517039
H       18.50855519      13.57622231     -21.84987848      -0.00105762       0.22838837       0.09015233       0.23132730       0.00549456      -0.39088613
H       16.68159164      13.02150217     -18.25913846      -0.08571299       0.22763904      -0.02180427       0.14127786      -0.00042086      -0.29497841
H       18.57823908      11.73578982     -17.45125548       0.12321223      -0.19988116      -0.30779784       0.01069242      -0.44570953       0.80144918
C       -1.54513730      17.22757794     -23.34627607       0.20017053       0.66705646      -1.38411916      -0.96233708       1.16157126       1.51077247
C       -2.74905333      17.31189406     -22.59875820      -1.23083089       0.74943347      -0.08847064       2.15110040      -0.38511002      -0.94402182
C       -3.82939514      16.72620758     -23.21688119       0.12624434      -0.59511676       0.25244259      -1.97683883      -0.43016890       1.05841398
N       -3.84432217      16.26971898     -24.46371546      -1.01832068       0.41272558       0.23368641       0.28719902       0.08083140      -1.31429076
C       -2.73915123      16.39372260     -25.22243517      -0.81626861       0.56034512      -0.54040312      -1.31256938      -0.14234483      -0.55571884
C       -1.57975760      16.85080411     -24.63851624      -0.26761420       0.29748664      -0.53240862       1.71929598      -0.94243789      -2.33521700
H       -0.59207284      17.54866896     -22.97516585      -0.03351141       0.20495089      -0.02800579       0.13596322       0.15727650       0.47356302
H       -2.67829687      17.74925760     -21.61982842      -0.18886045      -0.14072285      -0.02581982      -0.63777322      -0.25149179       0.28240019
H       -4.80154981      16.54497110     -22.65888868       0.19670357       0.06673271       0.04148102       1.33454263       0.40122226      -0.69499272
H       -2.80621714      16.13647888     -26.34076645      -0.16996297       0.21022721      -0.02113021       0.04497029       0.21508771       1.98695672
H       -0.62724872      16.80058010     -25.20803542       0.12321436       0.09301660      -0.01760467      -0.83963013       0.29417109       0.37680805
C      -15.82445491      10.24538592      -9.72683101      -0.14579886       0.45260384      -0.47480765      -0.94779217      -0.21042690      -0.53562784
C      -16.97800752      10.95832836      -9.40382611      -0.05694703      -0.33658384      -0.91181616      -0.08662573      -0.01053736       0.77975589
C      -17.17175930      11.39769140      -8.10932590       0.26026410      -0.60308657      -0.53453192       1.67146635      -0.42789868      -0.06415459
N      -16.20615417      11.19738872      -7.17984315       0.30258077      -0.56891291       0.51249605      -2.46459532       1.48031402       0.39777106
C      -15.14800961      10.53531625      -7.50653858       0.17461315       0.69126069       0.14315396       1.49871778      -1.25153995       1.73113406
C      -14.91646712       9.98260174      -8.73873895      -0.00958884      -0.15868273      -0.08378315       0.03971788      -0.33934993      -0.90384650
H      -15.71875553       9.83728762     -10.72923538      -0.11016047       0.01204436       0.21015106       0.13550152       0.15497622       0.26750445
H      -17.76608961      11.16725173     -10.07589142      -0.06328873       0.02734018       0.10091328      -0.42144746      -0.01250405      -0.98424292
H      -18.05552754      11.94093449      -7.83152391       0.06659025      -0.22393493       0.18238789      -0.19080327       0.05137695       0.22990772
H      -14.49818644      10.30534826      -6.63868692      -0.09205272       0.04352598       0.10308629       0.00468453       0.17662178      -0.82012022
H      -14.12436646       9.29263730      -8.92731879       0.16353098      -0.17227882       0.16476293       0.62470675      -0.07274743       0.06807622
C       29.04195284      -1.77904323      22.72562057      -0.69801240       0.69135820      -0.15515639       0.23365080       0.05673936      -0.02020487
C       29.08267782      -0.72980060      23.64815527       0.51693190       1.09535935       0.12768872      -0.08051799       0.16623083       0.30950132
C       29.94713019      -0.84939052      24.73750405       0.19533917       0.00044046      -0.25379602      -0.52050918       1.40301740      -0.55883408
N       30.77337260      -1.85806316      24.91994963       0.00622988      -0.13378596      -0.22806963      -0.07525563       0.43452585       1.17755806
C       30.68231575      -2.83298184      24.05084822      -0.51689854       0.13220694       0.91821346       0.89211458      -3.07220221       0.64393228
C       29.87316770      -2.88477673      22.95052818       0.72153001       1.00057600       0.44524846      -0.53192598       1.43817472      -0.39957833
H       28.40044419      -1.74111028      21.85877640      -0.00366284       0.19189635      -0.39368637      -0.04660437      -0.02024128      -0.01525442
H       28.51678267       0.22683618      23.61625600       0.36235180      -0.10285302      -0.09698293       0.20301753      -1.11721873      -0.35051236
H       29.94009046       0.01468008      25.41433552       0.22257883       0.11929196      -0.11710344       0.37388784      -0.58441108       0.06463486
H       31.19808749      -3.80894651      24.31117842      -0.07498144      -0.00912824       0.22059067      -0.04574323       1.46324217      -0.43384343
H       30.00666090      -3.70482591      22.28192917       0.10702031       0.01683189      -0.09458120      -0.39430067      -0.44561902      -0.25872248
C       18.84028930      23.34926325       6.17456058      -0.10258877      -0.22466842       0.69929422      -1.32630444      -1.26343060      -0.36980978
C       20.07093640      23.71020574       6.62690158       0.01212029       0.65699370      -0.36316636       0.39135015       0.72438103       0.12419869
C       20.81814869      24.59492230       5.84367867       0.41547685      -0.04210241      -0.35016677      -0.59744835      -1.40413332      -0.62087190
N       20.48307311      25.00065502       4.61568256       0.21223796       0.83099391      -0.32540764      -1.30680335      -0.39054531       0.22813483
C       19.29724919      24.51789754       4.18315707      -0.35783054       0.10142304       0.20978538      -0.70675707      -0.03219585      -1.11256671
C       18.45205077      23.68813169       4.89122018      -0.54494676       0.09993571      -0.19405111       0.95861918       0.16193399       0.74215877
H       18.15402250      22.70965734       6.71659930      -0.06648217       0.02796326      -0.04734967       0.28079236      -0.11746357       0.35884938
H       20.44574597      23.31019342       7.55918949      -0.05202647      -0.01143015      -0.11885721       0.09159216       0.23837611      -0.03845194
H       21.80191611      24.77102694       6.14331004       0.17948354      -0.14231377      -0.08692768       1.44665098       0.83127064       0.42830345
H       18.87859309      24.71217522       3.18359677       0.11949242       0.10427203       0.08386979       1.07742178       0.56344372       0.20201111
H       17.57308291      23.24370909       4.46522155       0.28913193      -0.16496003       0.02642455      -0.23372541       0.31339294      -0.18936217
C       28.34278764      16.42231136      -6.17627534       0.37109707      -0.23256859      -0.49629634       0.58600187      -1.34034300       0.10578427
C       27.85084376      17.37994710      -5.32712800       0.39588166      -0.24526271       0.78549087      -0.46168858      -2.76256990       1.30360162
C       27.71399648      18.62759496      -5.75821337       0.15558743      -1.09547837       0.03817278      -0.06287113       2.69879031      -0.06269789
N       28.06813503      19.02653342      -6.94939190       0.01125041      -0.29459084      -0.48861712       1.32144642      -0.17481762      -2.55163336
C       28.64676295      18.11284641      -7.79033140      -0.86764290      -0.75596372      -0.46801991      -0.75888717       1.99023998      -0.35806841
C       28.79073084      16.79248426      -7.43516253       0.53623171       0.58793639       0.99206553       0.06519958       0.47007918      -0.00785634
H       28.42508371      15.38868643      -5.82311786      -0.06086952      -0.13164127       0.06188742       0.02196154       0.39127409      -0.21029170
H       27.48575517      17.12219795      -4.34522576       0.06503470      -0.34788307      -0.28613205       0.19638009      -0.13222530       0.11583996
H       27.38467856      19.40796820      -5.09467632      -0.04212031       0.04864299       0.08026598      -0.41258198       0.13559589       0.16792680
H       28.94682557      18.50907117      -8.81829830       0.00383121      -0.08208153       0.21997581      -0.35758752      -0.60769308       1.62026596
H       29.26022487      16.14856963      -8.14526763       0.00351575       0.20005305      -0.26180980       0.08964536      -0.60019779      -0.08566960
C       36.23048130     -24.53890249       4.71938310       1.06119172      -0.07544341      -0.23436079      -0.12678069      -0.85593426       0.20679194
C       37.04917557     -23.42909231       4.95569669      -0.06412114       0.09854014       0.63550708      -2.01461744       0.82443029       0.22455049
C       36.34606968     -22.26301458       5.31919409       0.36509048      -0.00673366       0.22896969      -0.01373780      -1.37281466       0.33109069
N       35.02831261     -22.19547884       5.57021140      -0.13149869       0.10064522      -1.02991904       1.45497417       1.52892339      -0.46438965
C       34.29876782     -23.23692548       5.27924767      -0.63871546       0.09793323       0.92286231      -0.16609234      -1.00518680      -0.11758757
C       34.84455214     -24.44366981       4.88633409      -0.54817963       0.14541768       0.43281185       0.36103573      -0.57807553      -0.82179868
H       36.54653466     -25.54214255       4.41620434       0.09104124       0.01631617      -0.10115351       0.54207605       0.63045359       0.04481381
H       38.11100246     -23.29406279       4.89008550      -0.24919881      -0.00841621       0.15575443       0.26197642      -0.68839860      -0.36482021
H       36.93611274     -21.38187906       5.42319244      -0.27930285       0.08730067      -0.25305663       0.00736755       0.79104447       0.33644718
H       33.24575214     -23.08452151       5.30235640      -0.03175827       0.05943155       0.07342317      -0.76408803      -0.06645632       0.30046728
H       34.22201282     -25.30389085       4.56783321      -0.21797396      -0.02689756      -0.35553788       0.38167807       0.74701339       0.49280730
C        3.96443969       6.67527356      20.24735556       0.77655314       0.42306992      -0.76782443       1.14528656      -1.35472703      -0.87277633
C        3.64467464       5.34508126      19.87460829       0.58079149      -0.13369756      -0.35210241      -0.43692896      -0.36466449      -0.21292067
C        4.57784408       4.29375765      20.04483256      -1.35260503       1.00453514       0.24212948       0.55840254       2.22196889       1.17972982
N        5.76364334       4.47867737      20.66662391      -0.40674796      -0.28333779      -0.26097773      -0.62729061       0.49970803      -0.67928100
C        6.08119528       5.74795302      21.01258316       0.39961685      -0.47078979       0.45733656       0.05254352      -1.47548056      -0.62618738
C        5.26791613       6.83449704      20.75521772      -0.65741460       0.51555809      -1.56922433      -0.30034927      -0.19906199       0.68902433
H        3.36469625       7.54762933      19.97644900       0.07473650       0.11039640      -0.05943275      -0.10474958      -0.55001575       0.51216018
H        2.66455904       5.02760488      19.43852643      -0.06846262       0.04817834       0.06318927       0.93969607       0.76129514       0.39814562
H        4.37109824       3.29736048      19.73865457      -0.13348229       0.01642893      -0.26167854      -0.30478796      -0.53854179      -0.24352664
H        7.08501865       5.83158151      21.45795772      -0.06781936       0.19307073      -0.13173753      -0.69747210       0.34099895      -0.09689903
H        5.68236219       7.74407724      21.12417825       0.10085553       0.19392194      -0.01211537      -0.22831790       0.90383965      -0.14213903
C      -47.74531074      -6.43587268      18.52824981      -1.03138026       0.73375628      -0.32306781      -1.13040614      -0.49793017       1.73526144
C      -47.32258932      -6.31825446      17.24477483       0.05712869      -0.43905378       0.18584668      -2.03968024       2.85591960      -2.31081033
C      -46.44166413      -7.14106592      16.65978018       0.32955814      -0.02679741       0.17969814       0.96051478      -2.88313890       0.06145233
N      -45.97061233      -8.23206600      17.31579375      -0.36098417      -0.13185900      -0.01963633      -0.48903364       0.20853484       0.48460019
C      -46.41606419      -8.41663282      18.57506287       0.83436344       1.47921694       0.51754865       0.05201915       0.77671921      -0.33478436
C      -47.27775456      -7.52759837      19.24455112       0.67823825      -0.92582452       0.46821033       0.90188360      -0.35183066      -1.30549896
H      -48.55685403      -5.81056864      18.93912700      -0.13009950      -0.36147403      -0.04331651       0.68894255      -0.20474559      -0.25172392
H      -47.82949218      -5.60932676      16.53399631       0.01362957      -0.24424680       0.12740016       0.66055286      -0.39227650       1.11059594
H      -46.25043730      -7.11038204      15.58560088       0.02062519       0.04472249       0.24053788       0.28381678       0.31427518       0.39671898
H      -46.11085694      -9.30446989      19.11822902      -0.02048207      -0.12693593       0.16326321       0.23883082       0.00512831      -0.26982969
H      -47.53659480      -7.77854796      20.23833283      -0.19262586       0.04190060       0.29582987      -0.44710410       0.10963875       0.76830947
C       -0.43812205      41.04955335      12.36172932       0.16408968       0.39735580       0.33280230      -2.15614700      -0.39213932       0.18277055
C       -0.50023884      41.06366724      13.74617415       0.59629633      -0.35963273      -1.05890225      -0.27880529      -0.29694033      -0.56402373
C       -1.72745975      40.70272435      14.35393923      -0.53303771       0.31964849       0.04013188       2.79715061       0.61649120       2.55225444
N       -2.75561423      40.30312263      13.73116946      -1.15914763      -0.58383882       0.52189868      -2.67893505      -0.51062167      -1.29769528
C       -2.73332881      40.37740548      12.40213857       1.02311449      -0.72490291       0.61310167      -0.24470085      -0.71492726      -1.48768044
C       -1.66277000      40.73719241      11.64581521       0.47429530      -1.20426335      -0.14232840       2.76115799       0.72316277       0.46779084
H        0.49332776      41.23073139      11.88681915      -0.18764131       0.08245773       0.22298690       0.52748072       0.17322767      -0.55169338
H        0.39815709      41.23179004      14.32857749      -0.08850203       0.05003203       0.09450626      -0.34588790       0.12542778       0.00002301
H       -1.82607405      40.66532546      15.45262534      -0.22227719       0.19229400       0.17254565       0.37819564       0.15267636      -0.55321670
H       -3.56088385      40.02165327      11.81369794       0.42961052      -0.06760532      -0.04788176      -0.71276236      -0.05752300       0.49523434
H       -1.68384096      40.72117395      10.54826311      -0.04698109      -0.09005682       0.23252843      -0.12507840      -0.00170003       0.66917002
C       32.33146912       3.57127531      18.60304824       0.11015608       0.70207221      -1.11644461      -1.47329807       0.58304060      -0.70494372
C       31.11666487       3.57707269      17.89790632      -0.02187424      -0.64216959      -0.03817479      -1.17358720      -1.66254783       0.45236725
C       30.64590545       4.71942072      17.26284320       1.00104821       0.72753285       0.00707075       1.21261322       2.22376919       0.85042399
N       31.35583902       5.91130417      17.30805934      -0.65526888      -0.51368131       1.21403901       0.74555963      -2.10925770      -0.02578267
C       32.60790285       5.82237735      17.84712658      -0.80986356      -0.37800295       0.19782296      -1.43364394       1.61657465      -0.23755738
C       33.06691785       4.72928639      18.55505683       0.37544524      -0.42681755       1.01754216       0.56489080      -0.39605427      -0.92844379
H       32.69863845       2.71916136      19.14346159      -0.26216699      -0.04864502       0.23509705      -0.12430258      -0.28645137       0.00039650
H       30.45803615       2.65604221      17.91514233      -0.15039101      -0.09449421      -0.01586071       0.86042506       1.19938254      -0.15168989
H       29.66138625       4.83186012      16.80224250       0.29866366       0.00883889       0.03283630       0.39633015      -0.46813053       0.07749262
H       33.19136608       6.77576815      17.80775958      -0.04814456      -0.05313823      -0.16283626      -0.46401376      -1.07149088      -0.01235747
H       34.08864485       4.64469553      18.83508376       0.15126108       0.02273234       0.04771895       0.61933422       0.53138077       0.72197795
C       20.50189729     -11.50193851      24.87504902       0.29911038       0.30494303       0.27215546      -0.59796512       1.38755226      -1.17030001
C       20.80692900     -12.66499427      25.53413857       0.08144066      -0.09486615       0.98562145       0.03717245      -1.66723204      -0.68857712
C       21.35113342     -12.57081915      26.80831600      -0.25193799       0.31555981       0.32852899      -1.02249992      -0.12355536      -0.28089246
N       21.51223786     -11.40024280      27.38180782      -0.72591674       0.08755293      -0.67407521       0.97267431       0.00771327       1.35856462
C       21.33538343     -10.27766706      26.71761505       0.62112128      -0.21124986      -0.06475885      -0.86279166       0.40838620      -1.34298837
C       20.81631182     -10.25482840      25.41512938      -0.37913392      -0.02879815       0.35593062      -0.02417821      -0.37542474       0.31683272
H       19.97063397     -11.43450210      23.90621312       0.12400065      -0.43942873       0.10435868       0.60431844      -0.64764917       0.63031447
H       20.68496471     -13.64614372      25.02126777      -0.17090102       0.19145786       0.07605646      -0.05401607       0.86373854       0.70210785
H       21.58047635     -13.42917494      27.43485557       0.04120624       0.10589302       0.10039125      -0.11556491      -0.02179612      -0.36154652
H       21.54884854      -9.38625345      27.25547356      -0.08589462       0.04464421       0.00494009       0.16359845       0.61288470       0.22854346
H       20.60946470      -9.36005672      24.80383054      -0.14077625       0.11059933      -0.05489604       0.29493636      -0.40121144       0.83577693
C       16.76507278      13.98762060      12.63889746      -0.18699659      -0.31500458       0.67028488       1.51289582      -0.56056714      -0.00993702
C       16.08519807      15.01321419      12.02666669       0.09275766       0.26076874       0.27869426       0.57373440       0.51995254      -0.01642858
C       14.75434289      14.84368833      11.72630740       0.80844959      -0.35289809      -0.50441216      -0.52847028      -0.70454538       0.20717704
N       14.09039027      13.70108165      11.95082631       0.08022313      -0.86632176      -0.49111639      -0.01064843       0.22919613       0.03577909
C       14.75323676      12.71305615      12.54131908       0.16679899      -0.92522062      -0.01910125       0.11288655       0.46321249       0.10135850
C       16.08619146      12.82969563      12.90133695       0.08975038      -0.20585572       0.51088033      -1.00776601       0.17388719      -0.01684509
H       17.86136555      13.98376067      12.84963701      -0.12086114       0.32435651      -0.28195720      -1.13754773       0.48913240      -0.16630484
H       16.64281948      15.89558250      11.78842716       0.04959435       0.29538437       0.00073666      -0.12299854       0.47317046      -0.15054929
H       14.13486926      15.62246160      11.33387033      -0.12250324       0.07847494       0.12830572       0.03767604       0.49940774      -0.31956902
H       14.18429064      11.83543301      12.79162643       0.32684099      -0.00594874       0.12548829      -0.06760015      -0.23463564      -0.10939108
H       16.54843482      12.05382145      13.42448813       0.29898567      -0.31422994       0.02324227       0.65119743      -1.17949080       0.62773758
C        5.17198470      -8.82539060     -15.34798099      -0.07365228       0.32603307       0.51766682       0.24726236       0.01030062      -1.35871327
C        4.38720328      -7.71250459     -15.08564472       0.21610727       0.42845551      -0.43958433       0.62243974      -0.99311841      -1.00802112
C        3.53357057      -7.69225929     -14.02628359       0.47302453      -0.22879909       0.06268465      -0.50153708       0.82913446       0.26287526
N        3.40398180      -8.72295538     -13.20857768       0.13326664       0.68481206       0.27886599       0.04953578      -0.52306569       0.78747404
C        4.11639288      -9.80093471     -13.49536391       0.19722973      -0.10895108       0.45904564       0.54049903      -1.33549190       0.27442697
C        4.98907718      -9.93220751     -14.57834591      -0.03918386       0.02499275       0.74998892       0.98988593      -0.71581483       1.09816611
H        5.83199223      -8.83974017     -16.23798508       0.01859060       0.06363689       0.06484589      -0.44642416       0.03465862       0.76654309
H        4.39390525      -7.05076461     -15.89180521       0.02659880      -0.08778957      -0.06406111      -0.11970241       1.86937141      -0.47159234
H        2.94495521      -6.79874113     -13.81048207      -0.16994981      -0.13363658      -0.01654504       0.11516796      -0.47516185      -0.08692131
H        4.07489889     -10.67823936     -12.82853422      -0.04022577       0.12334841       0.15079016      -0.47225404       0.65229416      -0.18536329
H        5.63799464     -10.82126206     -14.68834007       0.38844953       0.02283712      -0.23169398      -0.79119480       0.49522352       0.04618463
C       43.87436036      19.32165443      22.04952016       0.05401511      -0.84946269       0.06872178      -0.67082155       0.32716498      -0.31626374
C       44.91539047      19.19534721      22.99842152      -0.64917470       0.36751592      -0.83730969      -1.71857691       0.03519920      -1.95856404