1024
Lattice="21.528750236012602 0.0 0.0 0.0 21.528750236012602 0.0 0.0 0.0 21.528750236012602" Properties=species:S:1:pos:R:3:momenta:R:3:forces:R:3 mol_liquid.pdb=T energy=-372566.78125 free_energy=-372566.78125 stress="0.002130849054083228 -0.001612407504580915 0.0012518522562459111 -0.001612407504580915 0.0030219233594834805 0.0010128115536645055 0.0012518522562459111 0.0010128115536645055 0.002126367762684822" pbc="T T T"
C        6.95146023       4.01664403     -18.21891669      -0.03461721       0.44440366      -0.15037776      -1.11725748      -0.64026845       0.80096084
C        6.23831215       2.73915444     -17.73206323      -0.46821990       0.31609959       0.18952030      -0.13157833       0.38259357      -1.10623980
C        5.97600386       5.20099919     -18.29862655      -1.16054344      -0.46844430      -0.18549825      -0.47888899      -1.70357263       0.26928771
H        7.33596277       3.76210965     -19.19829192      -0.12395894      -0.03673547      -0.20452723       0.77379048       0.50621510       0.18334655
H        7.66069336       4.22217157     -17.42374090       0.09884817       0.03063718      -0.04943637       0.84009159       0.09392644      -0.47288668
C        7.13074554       1.63102897     -17.22849555      -0.65687032       0.13545277       0.42062064       0.53741968      -0.26575068      -1.29461420
H        5.56632955       2.29017593     -18.49140020       0.16549518       0.05348553      -0.08234774       0.46668380       0.44816071       0.33259887
H        5.58836675       3.03690698     -16.92815260      -0.01569890      -0.15639394      -0.03870052      -0.38557100      -0.06760119       0.63036650
N        6.24561937       0.55423665     -16.84906966       0.86236152      -0.19690883       0.55846228      -1.28673935       1.50040698       1.49284327
H        7.78773275       2.04588419     -16.47924341       0.08234760      -0.03445272      -0.00903037       0.12653646      -0.07415693       0.89182574
H        7.87152523       1.23885163     -17.98066907      -0.16346404      -0.06118097      -0.25477296      -0.90737891       0.48389697       0.18932588
H        6.67481248      -0.31561379     -16.85942912      -0.14338121      -0.06506947      -0.14200828       1.19808483      -1.76885939      -0.04582291
H        5.95148471       0.70451111     -15.86669260       0.19077033       0.11576649       0.23747426       0.34798917      -0.08857896      -0.83737934
H        6.43628625       6.05614378     -18.70109110      -0.11171620       0.44966431      -0.25004180       0.76357144       1.13872266       0.26842478
H        5.50022216       5.34704424     -17.28146548       0.00466288       0.14749854       0.10572960       0.14575657      -0.00262336      -1.49852490
H        5.33418092       4.91350600     -19.14264514       0.01597088      -0.07648942      -0.18904283      -0.80094033       0.23181793       0.76982474
C        6.64580008       9.31460835      -4.81460110      -0.55284224      -0.10957101       0.61416276       0.61311805       0.59350324       0.53560197
C        6.66418922       8.34274807      -3.64624649       1.10364775       0.22680073      -0.24227118       1.45545793      -0.70484817       0.91828406
C        5.23571393       9.43071999      -5.29675854       0.07699167       0.42326859      -0.41300907       0.16012883       1.34635484      -2.21276188
H        7.36145082       9.03134970      -5.58140709      -0.17503150       0.20274079       0.01723425      -0.19247660      -0.48094714      -0.18403552
H        7.03184248      10.29216690      -4.50701852       0.29080691       0.06381816      -0.19727005      -0.24106513      -0.01404608       0.18797295
C        8.04615705       8.31102306      -2.92276341       0.93960382       0.09314571       0.31725577       0.84575427      -0.88170969      -1.44385576
H        6.60984938       7.29269117      -3.98696162      -0.13164033       0.07697006      -0.07488163      -0.91497171       0.55248904      -0.11993007
H        5.87360481       8.60538716      -2.87165564      -0.24879003      -0.07995969      -0.12439727       0.78951210      -0.51347166      -1.05099356
N        8.39026273       9.58537784      -2.34757651       0.36116471      -0.33806092      -0.24672372       1.16942477      -0.63107789       0.43779215
H        8.93524562       7.97116343      -3.60727855       0.19923309       0.29506981      -0.03937724      -1.85432076       0.59278888       0.72809064
H        8.02150106       7.47788201      -2.17594312      -0.02951283       0.22780723      -0.34945704       0.03256248       0.94739044      -0.15443254
H        7.88717224       9.64442507      -1.50887816      -0.00376160       0.11934897      -0.02893956      -0.65056932       0.41544402       1.55600417
H        8.10417094      10.38506122      -2.87741369      -0.03989240      -0.07128508      -0.16390979       0.00712390       0.36994651      -0.57149154
H        4.62408246       9.86023931      -4.51674172       0.00389938      -0.00280278       0.16651422      -0.38180745       0.00372156      -0.06262217
H        4.94104328       8.44699599      -5.54615443      -0.02085078       0.09816193      -0.17299141      -0.88018060      -1.05728102      -0.02979173
H        5.11451927       9.99675573      -6.29034149       0.10190805      -0.04936330       0.13430329       0.25111303      -0.42442614       1.58834791
C        3.08891792       8.39393669       3.42163106       0.17951415       0.21791892       0.26448205       1.30844212      -1.22664702       0.07222290
C        3.87131056       9.06926779       2.30282168       0.31760085       0.02191230       0.24555471       0.02602165      -2.15578723      -0.46943507
C        3.60528250       8.68563650       4.81783086      -0.02140477       0.63280186      -0.38880810       0.71486187       1.04988682       0.37687659
H        3.25036564       7.30695303       3.38084396      -0.07153533      -0.03885974      -0.00328052      -0.34741080       0.12259923      -0.65955204
H        2.07831055       8.58340868       3.23220464      -0.18361645      -0.16210082      -0.24067086      -1.58559239       0.33127564       0.39760196
C        3.50404819       8.48539221       0.89829995       0.37446282       0.25639221       0.71450466      -1.48557031      -0.76158834       0.69666326
H        4.89365057       8.79654374       2.47147998      -0.10287646      -0.13501206       0.01873410       0.92546183       0.04185358       0.03761382
H        3.81770534      10.12042478       2.45155964      -0.19180290       0.10975931      -0.16063366      -0.31708983       0.91399926      -0.66104043
N        4.36199542       8.91947212      -0.17848608      -0.13109978      -0.94175158      -0.04256196       2.15550613      -0.75843179      -0.13098307
H        2.43644048       8.67084532       0.68025555       0.33350265       0.01478173       0.12770187       0.55244607       0.85199285      -0.10520268
H        3.44268107       7.36213089       0.87880410      -0.00330999       0.23127406      -0.05623337       0.69853008       0.61872303       0.90982646
H        5.27572567       8.40156369      -0.05498036       0.28970808      -0.04460415       0.12627267      -1.25727677       1.14739430      -0.09370137
H        4.05055963       8.54393831      -1.06947718      -0.09396022       0.38260461      -0.14049678      -0.54775697       0.30220324      -0.10954496
H        3.37379925       9.74671512       5.16529897       0.13402748      -0.04305396       0.08824680       0.72702843      -1.27276909      -0.44012371
H        4.71305000       8.44961603       4.72224875      -0.54321078      -0.06771920       0.03353527      -1.14563191       0.78139269       0.66838014
H        3.21017701       8.00483817       5.58665750       0.14448430       0.13689186      -0.05421735      -0.03039180       0.20939098      -0.38999620
C       17.88769419      -5.58886940      14.34040505       0.25530664      -0.33611805       0.17364023      -0.13397285      -1.75269032      -2.26504683
C       17.54525599      -6.20270369      15.64206422      -0.08125990       0.02879122       0.75179907      -0.25359634       1.54546189       1.69016504
C       17.51271860      -4.16961018      14.15618581      -0.97100393      -0.00952710      -0.31007967      -0.63206697       1.64368999      -1.14983141
H       17.42145570      -6.25424610      13.52803849      -0.06364911       0.01749592      -0.18706846       0.41932881       1.05209947       0.87381327
H       18.94490439      -5.69496292      14.14537527      -0.04122503      -0.00790732       0.02039563       0.32491401      -0.08821761       0.22268714
C       17.82702358      -7.66773682      15.70248420       0.18653617       0.52652061       0.16225256      -0.71708882      -1.65120387      -1.24734521
H       16.48073253      -6.16180240      15.79669596       0.14772032      -0.05945231      -0.02621382      -0.66577280       0.30705506      -0.04588639
H       17.91618408      -5.50338669      16.45176126       0.00038006      -0.30751107       0.03422760       0.21665989      -1.31710255      -0.49646872
N       19.13019396      -8.10503047      15.20627555       0.88522844      -0.38038391      -0.32744169       0.48372144       0.18334937      -0.10084361
H       17.00855204      -8.14616988      15.04174885       0.16260590      -0.26222945      -0.27905756       0.89985847       0.53420764       1.08832335
H       17.70045106      -8.07947097      16.71137666      -0.32476717       0.14073221       0.26168807      -0.00537035       0.21811756      -0.23790370
H       19.34511261      -9.00454181      15.62627973       0.20438504      -0.13377118       0.07376314       0.16593280       0.19448173      -0.70708632
H       19.26925665      -8.08492800      14.17596120       0.15357994      -0.04721875      -0.08962410      -0.46467170      -0.39025021       1.22055054
H       17.68459155      -3.78618056      13.13556110       0.11081528      -0.13449576      -0.19428647       0.26053613      -0.46019515       0.13144861
H       18.08954750      -3.47321339      14.76178141      -0.07598595       0.16122507      -0.04588443      -0.17023523      -0.15377113       0.46247128
H       16.44227631      -3.97267304      14.25003862      -0.05213915       0.07120702       0.14583544       0.00174030      -0.09951839       0.59887451
C        3.40212059      17.99343760      24.73086149       0.90642772      -0.11630112       1.10002307       0.82686990      -0.40597516       0.94149071
C        3.00613989      19.20777025      23.97339702       0.35699209       0.45351704       0.06326737       1.39879632       0.63537955      -1.26698184
C        2.57695374      16.76187142      24.48934102      -0.03875004      -0.14072053       0.36997425      -0.88659501      -0.11496141       1.44736481
H        3.43706350      18.26228446      25.80135238       0.04761521       0.08068796       0.00853293      -0.23265980      -0.44368720      -0.19355991
H        4.43579691      17.70407976      24.48223299      -0.01470854       0.01977382       0.17364050      -0.09820060       0.44048309       0.06250940
C        3.61953931      20.51273667      24.52995583      -1.12846906       0.23217360       0.42251597       1.65810323      -0.73738444      -2.54802990
H        1.97309373      19.38651587      23.85853246      -0.05533915      -0.30747466      -0.37754389      -1.53018081      -0.24970523       0.29539227
H        3.36125890      19.03387217      22.91655816      -0.24935651      -0.15909299       0.02712466      -0.18390152       0.59706324       0.86408186
N        3.18394672      20.91993600      25.83797587      -0.41391426      -1.05875687       0.29372122       1.15789127       0.73389107       1.34030080
H        3.26926046      21.27026553      23.80194023      -0.22404439      -0.05390866      -0.03544396       0.70682651      -0.21267615       0.48523992
H        4.77069496      20.32368879      24.43241717       0.02622284       0.20652658      -0.08259076      -1.87351561       1.02043092       0.36738461
H        3.47768713      21.92958926      25.95313531       0.12715316      -0.03836534      -0.03982983      -0.28912589      -1.68062866      -0.15438226
H        3.81035708      20.41570202      26.50180102       0.06073236       0.21513857      -0.13662645      -0.96147728       0.67148823      -0.42963678
H        1.52513109      16.96333744      24.70663876       0.20594010       0.22776740       0.05701449      -0.02301269      -0.05634892       0.21028686
H        2.91384150      15.95814367      25.15571995      -0.05663648       0.44935548      -0.05006194      -0.17529503       0.05831964      -0.25202253
H        2.57126813      16.40804534      23.49092453      -0.01168388       0.12048279       0.11497557       0.40003437      -0.26372552      -1.09785712
C       19.20930423       7.96930473      30.96481462       0.38723421       1.11247521      -0.75379245       1.53451920       1.21712124       1.62506795
C       19.31722195       9.20132714      31.97820459      -0.74517404       0.26659689      -0.35742985       1.57215786      -1.15398371      -0.57127315
C       18.84187540       6.62287919      31.50433468      -0.07931772       0.33895786       0.69059364      -0.67339814      -0.80890507       0.99628139
H       20.25185131       7.76530692      30.63719062      -0.04700874       0.02623394       0.15473658      -0.58132786       0.81803119      -0.53981632
H       18.56611839       8.27303385      30.15606586       0.10743137      -0.09286933       0.21053457      -0.06560034      -0.14929730      -0.41884214
C       20.48278130       8.93230566      32.97904850      -0.02951534       0.30005666       0.15003881       0.31743827       0.42466357      -0.38092077
H       18.40636536       9.43497991      32.53678123      -0.21545885      -0.10394165       0.13284716       0.03461993      -0.09749112      -0.40103501
H       19.63828726      10.07945416      31.36784792       0.21426193      -0.08834959       0.11179305      -0.58264238      -0.59715617       0.46962151
N       20.87703723      10.11073951      33.80724740      -1.25750854       0.57394450      -0.15996248      -0.12365696      -0.00401613      -0.63435173
H       21.39782574       8.57961401      32.38216024      -0.03957034       0.28184442      -0.19582579      -1.25714076       0.48199025       0.88082993
H       20.23307268       8.15024572      33.70573175      -0.01946454      -0.37210447       0.10727390      -0.16116621       0.07852787      -0.50750566
H       21.66146098      10.51935737      33.33894780       0.05229782      -0.20966158      -0.12283098       0.83088899       0.15782769       0.02085705
H       20.22974605      10.89591583      33.72698309      -0.04274704      -0.34296446       0.07518678      -0.33343354      -0.55799794       0.18825896
H       17.95996419       6.59815764      32.13523261       0.32460730      -0.19703234       0.00622311      -0.47042459       0.14010811      -0.19728208
H       19.56155451       6.04997279      32.09337157      -0.13492014      -0.04044478      -0.14398197       0.60352135       0.74262232       0.11611213
H       18.71875697       5.97442023      30.66902871       0.02509160      -0.11787385       0.22721209      -0.67506075      -0.57682943      -0.64577776
C        2.32070952      -4.74434197      15.55429201       0.39643250       0.64540616      -0.36101608      -1.37299013       0.83334088      -0.07362231
C        0.84902393      -4.41456198      16.04081636       0.48620321      -0.23039365       0.42091470       1.64593363      -0.72080910      -1.63082755
C        3.06002692      -3.42252170      15.60681368      -0.34589494       0.56117117      -0.08904188       0.62664801       0.68560708      -0.91379905
H        2.27594086      -5.16571606      14.52825171       0.07880346       0.16186071      -0.04103721       0.02374644       0.47239286       0.62644154
H        2.77545455      -5.51343731      16.16983894       0.21360417      -0.11664057      -0.09823084       0.02486753       0.07676574       0.27930140
C        0.05055094      -5.67839627      16.16073395      -0.54950556      -0.23845123       0.35184242       0.02526355       1.40421629      -0.37142494
H        0.40495622      -3.84242565      15.23680892      -0.22474570      -0.08176393       0.09148986      -0.16184855       0.19289048      -0.38167924
H        0.87897045      -3.72013671      16.85083500      -0.21385233       0.12931919      -0.02263154      -0.03709785      -0.03602818       1.10823083
N        0.10648743      -6.38536514      14.89019147       0.38402339       0.83689703       0.19818261       0.79965508      -2.41722512       0.29178742
H       -0.96001410      -5.39832256      16.37259591      -0.05641352       0.02967435       0.13987766      -0.87760317      -0.03004123       0.04095040
H        0.36847820      -6.25828073      16.97790159      -0.04838312      -0.03528151       0.24308162       0.57683462      -0.86732566       1.12488401
H        0.91439529      -7.10320777      14.94507580       0.15037825       0.17370559      -0.16546237      -1.70954192       1.70619392      -0.21239814
H       -0.73080263      -6.97638188      14.96625437       0.11718843      -0.08757459      -0.10726625       0.44275370      -0.03888908      -0.46521962
H        3.32162422      -3.09449249      16.60619584      -0.03932734      -0.07971938      -0.08958808      -0.56808347       0.13246506       0.34901735
H        2.51854669      -2.61481473      15.05307939       0.12969164       0.07560169      -0.00327292       0.15705293      -0.60393047       0.72017342
H        4.02877420      -3.42997089      15.13204191      -0.00752457       0.11561718      -0.20522867       0.45888603      -0.37914890      -0.45872185
C       18.24565792      17.90995875      18.51732559      -0.32647460      -0.34780714      -0.18353683       1.21467626      -1.59009016       0.63031209
C       18.89357761      19.21765095      18.92468408      -0.29188791       0.00586016       0.12798425      -1.56223893       0.37000650       1.23536730
C       17.96708204      16.92412667      19.69101328      -0.11704987       0.34512294       0.25982081       0.74198520      -0.41976374      -0.59165025
H       18.97560634      17.41577109      17.87078751       0.11599679      -0.00036180      -0.10725286       0.14005879      -0.18339825       0.02550535
H       17.41005707      17.95996535      17.87741029       0.12337324      -0.01163448      -0.20370449      -1.30079281       0.76309472      -0.54169893
C       19.51089781      19.95689895      17.76507927      -0.72321860       0.03771863      -0.58430778       0.84385693       1.98630452       0.61527413
H       19.67338340      18.98915409      19.65349667      -0.09197126      -0.14459597       0.06985919       0.03906877       0.05276452       0.05572637
H       18.11073337      19.85951513      19.50449919       0.08325218      -0.24278108       0.04183216       1.42987227      -0.75358200      -1.18215001
N       19.86702177      21.35357017      18.23856564       0.10851912      -0.00826881       0.51388143      -0.76580226      -1.61695910       0.05882432
H       18.79284195      20.11574092      16.99095374      -0.07772312       0.02174205      -0.11841921      -0.60388643      -0.17746276      -0.68034297
H       20.40377489      19.46326353      17.31212141       0.11908196       0.06034241       0.03963932      -0.65643835      -0.11258234       0.48502967
H       20.31152035      21.83792871      17.48373721       0.26218388      -0.13477183       0.18777428       0.52025574       0.45088205      -0.05343203
H       20.51794358      21.22482080      19.00557383       0.13406167      -0.21584506       0.31890141       0.24504928       0.25553423      -0.16709229
H       17.35619341      16.03146532      19.39598767       0.08499160       0.41271741      -0.05693117       1.00216341       0.57653970      -0.10439309
H       17.33586308      17.35128889      20.45968409      -0.07432105       0.24152159       0.02019490       0.30603948       0.43946427       0.37551108
H       18.99583171      16.62473976      20.06808467      -0.04905813      -0.10574500      -0.03850993      -1.52939487       0.12224860       0.00494849
C       28.23152374       3.44632870      10.93138999      -0.31886694       0.08200420       0.64641023      -0.32206836      -2.31050158      -1.24406409
C       28.99919719       4.54422664      11.48899368       0.03422948       0.17306803       0.89663398       1.30921578       1.83960617       0.93876946
C       26.75134230       3.58114053      10.78328105       0.04985026      -0.64603294       0.19921143      -1.52462363      -0.76020646      -0.85700411
H       28.43606261       2.47878508      11.43948426       0.00468560      -0.00848991       0.01069236       0.20165095       0.57561845      -0.19591929
H       28.61625450       3.35282414       9.88972949       0.21588636       0.13680137      -0.05959957      -0.13517593      -0.42476350       0.57312709
C       30.49091596       4.27602512      11.19525052      -0.26037914       0.23534137       0.68528858      -1.13709486      -0.90986019       3.54258871
H       28.88208003       4.68046405      12.59862450       0.13430147       0.01118104      -0.00489697       0.06151954      -0.23228770      -0.98376787
H       28.68054652       5.48768331      11.02659835      -0.22492720       0.13894577       0.18693936       0.14512828      -0.23941961       0.23431136
N       31.33099671       5.35389311      11.64211955       0.05682749      -0.34499448       0.21723435       1.00072443       0.20907640      -0.40702021
H       30.72824354       4.00384702      10.21985656       0.14663900      -0.10344006       0.21149196      -0.04648203       0.09587222      -1.77001333
H       30.67896321       3.31103168      11.76684540      -0.05113505       0.01215555      -0.20725230      -0.08380730       0.87622243      -0.43825650
H       32.28447262       5.07142996      11.42849804      -0.18400927      -0.07532551       0.18371353      -0.01102720       0.39814681       0.10596082
H       31.30496057       5.47831029      12.64316060       0.03166746       0.10665495      -0.06718300      -0.15146849      -0.18285468       0.20654622
H       26.49556094       3.98973053       9.80721020      -0.02218130      -0.33860511      -0.16507962      -0.02746695       0.14157227      -0.00178525
H       26.20538993       4.15866709      11.48923828       0.27655582       0.09937332      -0.04671847       0.04538013       0.77111721       0.90986919
H       26.22823215       2.61239764      10.82531749       0.12042149      -0.34529255       0.06630718       0.40232760       0.11994215      -0.15163347
C        1.97475994      -0.52732654      -3.73215128      -0.18884692      -0.34645693       0.01889957       0.82308185       1.71547973      -0.57627100
C        2.48448612      -1.29768768      -2.52537458      -0.72430456      -1.43447675      -0.75385710       0.42860046      -0.85937893      -1.14833188
C        3.08743075       0.11541008      -4.58523312       0.73232728      -0.05546397      -0.59974766       1.36197007       0.07349139       0.26163626
H        1.44683486       0.34339166      -3.33580187      -0.11886715       0.32330184      -0.13267887      -0.61573470      -0.30992663      -0.32460594
H        1.35388973      -1.08941377      -4.41137317      -0.02203847       0.10601109       0.03434788      -0.47516254      -0.21284761       0.18321373
C        2.16505323      -0.66311515      -1.20604136      -0.70951088       0.03499776       1.09914857       0.36046851      -0.24296807       1.04485166
H        3.55685113      -1.50498073      -2.69321965      -0.14051228      -0.09101639       0.04919465      -0.56270647       0.08667881       0.48391059
H        1.96972263      -2.24882636      -2.54830165      -0.00844683       0.23363257      -0.04239097       0.07764459      -0.47883657       0.24613956
N        0.74159526      -0.83333579      -0.87061943      -0.63733017       1.24817036      -0.22009949       0.13741443      -0.21702531       0.04141697
H        2.38813522       0.38710260      -1.17807052       0.02066550      -0.36181169       0.11506212       0.17353089       0.58946913      -0.35163239
H        2.82134046      -1.07467347      -0.41683233      -0.00011145       0.17297072      -0.10114081      -0.34598330      -0.04012673      -0.28437614
H        0.66447539      -1.53122298      -0.13242736       0.00230231       0.05754750       0.06582651      -0.14212757       0.44418335      -0.27379358
H        0.37912102       0.03859484      -0.51038977      -0.01061992       0.00995690      -0.04553772       0.02169339      -0.22129688       0.32358381
H        3.79225129      -0.55973610      -5.11845873       0.05932638      -0.11924506      -0.08771558      -0.88217986      -0.00080138       0.09358153
H        3.78733769       0.67569743      -3.96772353       0.20859532      -0.22152131      -0.02881901       0.02348923       0.00769132       0.59237456
H        2.77506276       0.90541519      -5.26015889       0.01939255       0.07139421      -0.06415461      -0.56117034      -0.32987335      -0.38268787
C       18.40310025      23.66221665      -0.54262093      -0.57252718      -0.52782131      -0.08769282       1.69418347       2.37415552      -2.50984168
C       17.44329779      24.81539522      -0.40374698       0.82488129       0.68442888       0.71270410      -0.32084122      -0.17162070      -0.17786893
C       19.81490959      23.98625136      -0.02731950       0.18415627       0.81820434      -0.63982593       0.26009309      -0.35724825       0.08709954
H       18.44916028      23.39901168      -1.62173706       0.05916139      -0.15323223      -0.11935780       0.17565584       0.09223983       0.57454276
H       17.94402265      22.87768147      -0.10934984      -0.22927253      -0.03511483       0.09627104      -1.08475542      -3.02992487       1.79070497
C       16.03588800      24.49574942      -0.89573811      -0.88380905      -0.81503755      -0.10840637      -0.59260774       1.54424787       0.97911203
H       17.81577140      25.68240190      -0.87658709      -0.03973462      -0.02243925      -0.01240391       0.48886049       0.90820736      -1.05359221
H       17.39520278      25.12944931       0.60295545      -0.15756484       0.17018105       0.07562815      -0.10234766       0.18989246       1.49759269
N       15.26311604      25.64893970      -1.48762492       0.27297128      -0.29745289       0.75905675       0.75246716      -0.60185230       0.94316703
H       15.44948734      24.15844215      -0.02704787      -0.13326349       0.11888510       0.01803023       0.04360221      -0.20591909      -0.43063286
H       16.12128827      23.71521065      -1.60322802       0.01857687      -0.05510443       0.03622126      -0.34824979      -0.76213384      -0.92562401
H       15.50123095      26.48923552      -0.96415585      -0.05016936      -0.21683369      -0.19179939      -0.31668416      -0.24396005       0.39543942
H       15.70290626      25.87589753      -2.35190695       0.12055685      -0.04844071      -0.13195666       0.27594361      -0.15585837      -1.03896546
H       19.84973122      24.03220381       1.07746203      -0.20068455      -0.03982525       0.06139880      -0.02963495       0.24998580      -0.54747534
H       20.15850760      24.93413410      -0.46544487       0.29766077       0.12275201       0.03521149      -0.18442023      -0.16337767       0.33665380
H       20.58301599      23.24357279      -0.31540271       0.07613547      -0.09053107      -0.25520044      -0.63475949       0.21250179       0.08980948
C       21.13752503      10.22701105       7.16110666       0.67072084      -0.18054996       0.62540255      -0.95937926      -0.74765867      -1.83641529
C       22.14214030      11.37275869       6.95260058       0.07465523       0.07519655      -0.66457932       0.39204007       0.69105232      -0.13455796
C       21.10608722       9.05369331       6.05793667      -0.39268273      -0.62581817       0.31448465       0.60883510       0.53530955       1.38791394
H       20.19729999      10.79617229       7.13985763      -0.07221814       0.21584780       0.03986454      -0.27826998      -0.63815725      -0.00666995
H       21.14869250       9.68704208       8.08564605       0.22830899      -0.09289671      -0.15634698       0.51318049       0.25432417       0.75715196
C       21.86500774      12.50806047       7.96971722       0.49047802       0.15526075      -0.56413206      -0.12738743      -0.33895740      -0.97613657
H       22.02014997      11.79676286       5.93244778      -0.02363682       0.30317541       0.16079219       0.32971227      -0.54788798       0.44173354
H       23.18580647      11.12482859       7.15550617      -0.31610877       0.06396504       0.21209941       0.06906763      -0.49606988      -0.55853951
N       21.97032915      11.93637170       9.29451196      -0.36759812      -0.14959138      -0.79099036       0.79876542       0.62307662       0.49791270
H       20.86154802      12.83581920       7.71428301       0.29041022      -0.09812907      -0.01619855      -0.33488905       0.26562554       0.58780193
H       22.50965577      13.41384763       7.85705322       0.28753271      -0.11081897       0.28802141      -0.19012718      -0.94649398      -0.02294898
H       21.13726873      11.43372752       9.53691453      -0.05086020      -0.40920432       0.46617924      -0.03477173      -0.27680540       0.01881333
H       22.76481401      11.28784138       9.27117394       0.08070277      -0.20662515      -0.00416490      -0.55769944       0.20788676       0.54353684