1152
Lattice="23.290729683320674 0.0 0.0 0.0 23.290729683320674 0.0 0.0 0.0 23.290729683320674" Properties=species:S:1:pos:R:3:momenta:R:3:forces:R:3 mol_liquid.pdb=T energy=-801863.875 free_energy=-801863.875 stress="0.001437544822692871 -0.0009282270912081003 0.0003920513263437897 -0.0009282270912081003 0.0017858496867120266 -0.0003597423783503473 0.0003920513263437897 -0.0003597423783503473 -2.0449329895200208e-05" pbc="T T T"
C       13.53962829       4.24101449      -0.38222947       0.12591937       0.91225497       0.14619271      -1.49565005       0.65721738      -0.36135072
C       13.64750523       3.11395143       0.40769845      -0.46419247       0.05757324       0.18721445       1.36493778      -1.97749043       0.30004084
C       12.67921643       5.27480518       0.00552464       0.45504988       0.40477354      -0.50238425       0.32230860      -0.31645244      -0.02936029
H       13.90263901       4.27169148      -1.38978142      -0.12493684       0.26924769       0.01560926       0.60621655      -0.20012513      -0.12479664
C       13.10317062       3.01533680       1.68015366       0.93470800       0.50390815       0.13248736      -0.86185205      -0.29150963      -0.40702415
C       14.51518343       1.94726851      -0.11012639       0.53394940       0.93314762      -0.40140600      -1.57734799       0.63245487       1.72159219
C       12.34807730       4.11025922       2.10224160       0.59371738       0.08927458       0.23168960      -1.40787125      -1.22697258       1.09242845
H       13.12287213       2.02368278       2.19125898       0.10029285       0.43404601      -0.09136408       0.19288895       1.33281422      -0.17414957
C       12.06743194       5.16483560       1.26137420       0.77936970      -0.22571606       0.05056048       0.79651046       1.65273786      -0.26770392
H       11.74896950       4.00905058       3.02902498      -0.21259507      -0.10166317      -0.12403826       0.86882323       0.23470171      -0.52306801
H       11.52452743       6.04177262       1.63467031       0.16818525      -0.15841941      -0.24094723      -0.18378113      -0.60945117      -0.15488535
H       12.50285838       6.11804610      -0.69020203      -0.08876289       0.22841452       0.26439355       0.09589817      -0.61496449       0.75251698
O       14.32999207       0.75640368       0.52426047       0.82927220       0.07479238      -0.03471078       0.21521536       1.21123922      -0.08671366
O       15.30121277       2.13632733      -0.97117744      -0.12189069       1.74783651       0.56776868       1.35785365      -0.38102663      -1.57174754
C       15.21014210      -0.28865467       0.11041795       1.11610775       0.58539031       0.03279146      -2.13157129      -1.71969414      -0.06346675
H       15.01549120      -0.52083226      -0.91215717      -0.21427759      -0.04188405      -0.26347517       0.12055688       0.24883506      -1.02494812
H       14.79875326      -1.21564652       0.57798958      -0.18845067      -0.14794114       0.08773097       0.82026422       0.90665555       0.29087353
H       16.24423941      -0.10600211       0.24518016      -0.06639417       0.17884992       0.11014921       0.78133798       0.31045771       0.52026504
C       -3.10398496       2.29917579      17.34056586      -0.00615623      -0.15940798       1.12247736      -0.84071571       0.80688322       0.81356597
C       -2.36665252       2.09933457      16.17043003       0.79791672      -0.36707254      -1.29624535       1.67696071       0.91216761       1.14262152
C       -2.56098014       2.98237617      18.42747399       0.36529600       0.47525388      -0.23530695       1.31556654      -0.66672790      -0.52769381
H       -4.17434712       2.02754558      17.35194298      -0.03251908       0.16873092       0.07758787       0.89832747       0.00744477       0.14367010
C       -1.05043881       2.60573613      16.12793884      -0.93239277      -0.67900785      -0.33345507       0.03402528       0.26226434      -0.29981458
C       -2.96801971       1.35099749      15.07860766      -0.21970408       0.10664839      -0.87888464      -1.26728165       0.00513050      -0.72026294
C       -0.46594408       3.21941963      17.26386899       1.09437243      -0.15311371      -0.34767974      -0.50667578      -0.62665200      -2.52532530
H       -0.46597161       2.61363628      15.19678701      -0.05603319       0.01536948       0.22224652      -0.43239149      -0.37238866       0.45505095
C       -1.18899656       3.38427296      18.37370342       0.45061233       0.40394409       0.66482024      -2.17908239      -0.14126799       2.95791483
H        0.48588371       3.66718477      17.21157858       0.06322614       0.12660616      -0.02666065       1.07754779       0.02586764      -0.20344840
H       -0.71447713       3.76960803      19.29554247      -0.14456849       0.15538385      -0.02720103      -0.40521666      -0.03421417      -0.78421313
H       -3.11124712       3.08407193      19.34780069       0.17142994       0.04573596       0.31379196      -0.12370263       0.07021715      -0.10299955
O       -4.12697885       0.75984501      15.54998503      -0.04056086      -0.01772243       1.02136096       0.44147396      -0.57128084      -1.41896701
O       -2.58710841       1.30624007      13.93287091      -0.34677356       0.33958381       0.60916113      -0.16392218      -0.37962139       0.69372880
C       -4.65016137      -0.29801524      14.70394258      -1.19917777      -1.16494850       0.28176787      -0.22622244       0.34783256      -0.66869199
H       -5.59934174      -0.64094092      15.09089842      -0.22196914       0.20069445       0.05098178      -0.08221805       0.30309609       0.42926049
H       -3.97820436      -1.14801897      14.77821069       0.09073449       0.04962732      -0.31167022       0.00093975       0.06701294      -0.32620591
H       -4.85327294       0.02104920      13.65086933      -0.05280211      -0.10379971      -0.14058452       0.64995098      -0.08954703       0.94506168
C       12.54034796      -5.17820639      19.33749613      -0.04069059      -0.46899413       0.26989986       0.07608798       1.79681611      -1.03898120
C       12.91655956      -4.34469579      20.38127727       0.32205172      -0.05440875       0.48248197       0.03093034       0.71591133       0.45616448
C       13.08326066      -6.43894349      19.33726096      -0.06716075       0.25280619      -0.48891012      -0.20133159      -0.92982489      -0.57745904
H       11.99791107      -4.71315494      18.46453684       0.19059111       0.20967367      -0.37888292       0.27359006      -1.00892305       1.22688508
C       13.77479783      -4.80219279      21.39944642       0.41085943       0.80500323       0.57103432      -1.14239252       0.71933061      -0.01881143
C       12.39940143      -2.92635425      20.51994868       1.00752391      -0.69385556      -0.77358443      -0.49405515       0.27913979      -0.04814129
C       14.28337776      -6.07299691      21.43571116       0.30986504       1.24253857       0.24646479      -0.39740878      -0.55391049      -0.96007645
H       13.90298732      -4.12921403      22.21152315      -0.10157457      -0.07079055       0.01677307       0.41889298       0.44342038       0.53057474
C       13.91511234      -6.88060562      20.35407391      -0.62643862       0.02093525      -0.35995113       1.10394955      -3.19814777      -0.32417670
H       14.88356877      -6.42450700      22.26504674      -0.01303015      -0.16442491       0.07797451      -0.02997264       0.00409657      -0.26827529
H       14.27212039      -8.01057619      20.24158440       0.03907841       0.07692143       0.20310154      -0.72247064       2.74732971       0.62062711
H       12.79288946      -7.14063947      18.54920212       0.14875445      -0.30862034       0.02107513       0.33845460       0.30490416       0.33126706
O       11.36818508      -2.61720285      19.69355555       0.90865494      -1.23132815       0.74278677       0.83716303      -1.29014397      -0.00994879
O       12.76669515      -2.10385914      21.32533763       0.21562285       0.77649051       1.69917047       0.58709037      -0.71158040       0.26854372
C       10.68509129      -1.44072875      20.04641683      -0.48039672      -0.06669046      -0.52297270      -0.23971221       0.97961843      -0.04132840
H       11.34740275      -0.59465592      20.22182251       0.14379428      -0.30866517      -0.22895227       0.03335914      -0.23366001       0.09486899
H       10.06166813      -1.59753445      20.91691068      -0.23117275      -0.03221249      -0.00718865       0.04651582      -0.02123360       0.21313086
H       10.05916261      -1.18823810      19.21611757      -0.18005454       0.24757225      -0.01402281      -0.39932072      -0.01895845      -0.46782136
C       17.96234745       3.94512310       5.67221288      -0.87441647      -0.31192129      -0.73710442      -0.07233508       0.89912874       0.19733179
C       18.10955854       5.22963689       5.10239046      -0.44366281       0.51143369       0.31529978      -0.05220419      -0.40295208       1.32945609
C       17.29222254       3.81477192       6.89012834      -0.85047072      -0.84979322      -0.46031745      -0.25916168       0.86774796       0.68763292
H       18.36627527       3.08619260       5.15914566       0.35793692       0.29806727      -0.23885611      -0.07935078      -0.03854684       0.03203835
C       17.61931964       6.33003473       5.81682899       0.58833315       0.33010152       0.82372965       0.63415271      -1.95451570      -0.01805741
C       18.95461912       5.53369500       3.92528706       0.58575162      -0.40740870      -1.00865339      -0.06965266      -0.55565017      -0.64855176
C       17.10616489       6.18472847       7.08042575       0.21480657      -0.08371839      -0.20846295      -0.72512293      -0.17380543       0.08751619
H       17.78053980       7.26127245       5.40716158      -0.01118370      -0.04642879      -0.13245323       0.22979255       1.88369036      -0.70861733
C       16.85096007       4.95344591       7.63369447      -0.00921496      -1.82740255       0.17622704       1.37187696      -1.29660964      -2.10705185
H       16.82040593       7.03280064       7.63721503      -0.06571259      -0.08511724       0.47161887      -0.18122011       0.91056561       0.28308475
H       16.32386979       4.92620921       8.55255003       0.07653245       0.08690187      -0.01804512      -0.01106547      -0.56518894       0.57146835
H       17.11972270       2.83703681       7.30047609       0.00568119       0.01313428      -0.14294125       0.01669116      -0.28748351       0.01375007
O       19.60991117       4.48446817       3.42037403       1.13101102       0.03388500       0.44987860       0.22252464      -0.44708717       0.73504305
O       19.04643712       6.62589722       3.43080940      -0.43598863      -0.90314523       0.69982883      -0.31322485       0.84768391       0.04213764
C       20.47530379       4.78993540       2.30980214       1.27007593      -0.16279886       0.26176027       0.12166316      -0.06686047       0.34039730
H       20.76585644       5.84059811       2.39881926      -0.10879352      -0.17927871      -0.11221194       0.15280224      -0.50963855      -0.32046080
H       19.84114409       4.61410804       1.45406466       0.03556353       0.14075401       0.04956270       0.40368646       0.11998268      -0.59495091
H       21.35325995       4.11059070       2.32020833       0.32519093       0.21878426      -0.17223331      -0.77357864       0.42735112       0.16518512
C       -3.38569842       5.15479797      15.07874086       0.62981616      -0.47055567       0.28373220       0.00228859      -0.47626686      -0.04823335
C       -3.16617539       4.75165897      13.77266082      -0.35743498       0.00308744      -0.45424414      -0.35715806       0.11178027       0.01104625
C       -4.63637337       4.97662451      15.63891227       0.21880752      -0.29825888      -0.28521102      -0.13538675       0.01404130      -0.52012110
H       -2.54712797       5.46129431      15.66804465       0.15151753       0.16192694      -0.21528196       0.24197090       0.32705525       0.25093853
C       -4.23008892       4.23548716      13.04092708       0.21453532       0.76515445       0.45472442      -1.71875024      -0.51655948       0.11643907
C       -1.80727894       4.81320694      13.15675863      -0.38340209      -0.25512531      -0.29428926      -1.90343106      -0.99801803      -0.68561769
C       -5.51829478       4.03093823      13.57599209      -0.46061631       0.31157869      -0.67895612       1.19499195       0.61142731       1.34722376
H       -4.11706899       3.94896237      12.02948435       0.25618103      -0.08130089      -0.03507178       0.44940832      -0.32862478      -0.63095188
C       -5.68021978       4.41738587      14.91060283      -0.15800134       0.91310358       0.34895212       0.02749744      -0.47289351      -0.13062760
H       -6.36528157       3.54301477      13.10576029       0.04487329       0.06314491      -0.14735764       0.38265201       0.18078527      -0.41257522
H       -6.59530550       4.16569472      15.42289351       0.04869859      -0.10444536      -0.02400035      -0.16701207       0.26314795      -0.01454329
H       -4.80611323       5.24756028      16.65021642      -0.09606895       0.05617806      -0.12023600      -0.03981149       0.15243013       0.77954251
O       -1.93143140       4.37258336      11.88206147      -0.42494643      -1.09453186      -0.18453424       0.72549009       1.00431442       0.55634868
O       -0.78425818       5.13503892      13.67508389      -0.80405775       0.34526591       1.53907230       0.75890267       0.41333014       0.38554946
C       -0.69473164       4.35952411      11.16713492      -0.01503330      -0.45461979      -1.39201956      -1.12521124      -2.84377599      -2.11220074
H       -1.05803163       4.26883223      10.05293332       0.08770727       0.23897546       0.29245357       1.20875359       0.29043326       2.04933548
H       -0.19416588       3.38950077      11.48810485       0.06667990      -0.16155650       0.26806898      -0.11807384       1.41997325      -0.71525478
H       -0.10705003       5.21169064      11.34087673      -0.11353033       0.07671772      -0.03776631       0.65012717       0.86123514       0.17015886
C        8.76073383      27.37291758      -0.15941683       0.49069072      -0.17219636      -0.04573528      -0.16270795      -0.22723329      -1.14562285
C        8.50825811      26.26319201      -0.97357289       0.63438187       0.40674369       0.20373709      -0.13051143      -0.78543693       0.47035548
C        8.03208795      28.56290905      -0.30305598      -0.57039423      -0.01726300      -0.44551744       0.74334359      -1.69394779       0.57738906
H        9.59045050      27.34186880       0.49558595      -0.16637163      -0.29426318      -0.06753300       0.64196151      -0.10635278       0.61112213
C        7.44341525      26.25790710      -1.87726496       0.00090313       0.71618245      -0.74260514      -0.04613347       1.43123984       0.69413674
C        9.27023799      24.96085000      -0.97264754      -0.05586983       0.29774613      -0.85251919       0.96877873       0.37652379      -0.39488494
C        6.73619820      27.44329997      -1.99205878      -0.43192174      -0.77710463       0.29332986       0.18298827       0.53263319       0.70743656
H        7.17082216      25.36677064      -2.41384079       0.26125164      -0.00377203      -0.06036793       0.14591683       0.05163199      -0.20728634
C        6.99030128      28.57952239      -1.18640768       0.75653149       0.02161119      -0.48071443       0.27179345      -0.62626791      -1.09325194
H        5.99031844      27.51579739      -2.73296646      -0.12094183      -0.14788948      -0.00740802      -0.91476333       0.16400178      -0.36304933
H        6.48375006      29.50587615      -1.34105603       0.37540669      -0.10446714       0.01417643      -0.63172591       0.17639241      -0.19481350
H        8.32502618      29.37615573       0.32233715      -0.11372025       0.00657300       0.04858872      -0.12693217       0.53866243       0.07783732
O       10.27264009      24.83581303      -0.08959169      -0.17507337      -0.19736292       0.66756341      -2.15340018       2.27922702       0.11947224
O        9.08617614      24.12158837      -1.82711578      -0.11695607       0.07948524      -0.18888792      -0.32532787      -0.07719989       0.17569518
C       10.94517346      23.63549481      -0.09586696      -1.09593897       0.37045849      -0.49115816       1.79766130      -0.53271866      -1.53213751
H       11.46137149      23.61788430       0.82141426       0.10423568       0.00740667       0.15110543       0.26343682      -0.63732678       1.22803283
H       11.75802232      23.71254247      -0.84954243       0.05509818       0.20524188       0.01864529      -0.59976518      -0.47021228       0.15366355
H       10.28952931      22.80731613      -0.33084258       0.25947835       0.07803465      -0.15024949       0.12446204      -0.18848367       0.29340270
C        3.88858937      31.75907894       8.99204010       0.65527372      -0.27638599      -0.91904346      -0.83158696      -0.33223453       0.44520187
C        3.45095029      30.52822571       9.45546746      -0.11559570       0.25931865       0.18342951       0.58692771      -1.90403473       0.81036299
C        5.06065199      31.84343014       8.32425443      -1.18209470      -0.12212928       0.68321224       2.38694954      -0.30377987      -1.49555302
H        3.28027848      32.59276478       9.26186048      -0.13693907      -0.32853661      -0.26541170      -0.01412185       0.57294208      -0.20576251
C        4.22458418      29.36626626       9.27640717      -0.49309092      -0.12237399      -0.53034280      -0.11138935       1.74748445      -0.69024032
C        2.29395805      30.41832472      10.37999942      -0.73084084      -0.07472537      -0.38188775      -0.18196031       2.39673042      -0.56778103
C        5.44077477      29.48046939       8.62715570       0.58347993       0.34799609       1.05403712       0.24040219       0.12608038       0.00403873
H        3.88791504      28.42769140       9.60444896       0.06920167       0.08967238       0.23274608      -0.46447515      -0.79265881       0.53427827
C        5.87557463      30.69260525       8.14296885       0.03636804       0.76812829       0.88544699      -0.67200685       1.02085805       0.76855826
H        6.12670034      28.66394839       8.56407902      -0.30533367       0.20075336       0.08713472       0.00432995      -0.52256233      -0.08230320
H        6.90279321      30.78341614       7.81618731       0.07373515       0.07555727      -0.14733183      -0.27867949       0.12915093      -0.39805818
H        5.48043250      32.76627420       7.90769979       0.15428552      -0.18492351      -0.20755780      -0.46954945      -0.16928831       0.42812282
O        1.82779427      31.70132763      10.63895061      -0.91003799       0.19912876       0.79257486      -0.63118178      -1.99642515       0.46570480
O        1.78414576      29.45449865      10.86498491       0.39835554      -0.60916568      -0.26742857       0.10791862      -0.66976082       0.01912548
C        0.58591900      31.70068269      11.39982225       0.48988080      -1.28011196       0.36821575       0.25263202       2.04170465      -0.86347234
H        0.42671607      32.79378094      11.39956783      -0.06995464       0.09005343      -0.18392353      -0.34373179      -0.55971158       0.70018744
H        0.65413474      31.28019169      12.39008372       0.03361441       0.02541985      -0.03336530       0.29064775      -0.09662333       0.09506366
H       -0.24250338      31.30788817      10.83127693       0.17362513       0.32175197       0.08199000       0.09104161      -0.52050912      -0.20454526
C        6.78116516      21.06378817      15.60656647       0.49309019      -0.81806336       0.07221262       0.82161516      -2.68150520      -0.59311396
C        7.20270483      19.95733443      14.83118922      -0.22016996      -0.97424734      -0.00429887       0.06986246       2.65720606      -0.62864542
C        7.24953068      22.30458631      15.35593716       0.32975245       0.09967613       0.38178242      -0.88985950       3.79055858       1.27686048
H        6.22206013      20.81202046      16.47031746      -0.02849391       0.02159051       0.10248914      -0.70057428       0.17582993       0.62037408
C        8.07631426      20.23197836      13.72734022      -1.17605915       1.28592582      -0.81597563      -1.81171596      -0.59431034       1.78691161
C        6.58682157      18.66315781      15.14037459       0.07964750      -0.19046517      -0.49066288       0.58105886      -1.60925412      -1.47173142
C        8.42980753      21.54594392      13.45039701       0.67951155       0.05012945       1.03717608       0.09653652       0.33209628      -0.14293875
H        8.37346101      19.35442919      13.18634282       0.15152802      -0.02838149       0.16151923       0.40992314       0.30607134      -0.55334330
C        8.01487027      22.63856924      14.24650389       0.21912470       0.46463264      -0.31568423       0.37141076      -2.34554887       0.02404112
H        9.04431210      21.69135828      12.57981335       0.28280131       0.14204168       0.19108578       0.18218060       0.17869470      -0.07182988
H        8.40101736      23.61988969      14.07648128       0.03453272       0.15763079       0.01246859      -0.03936066       0.38856381      -0.11488015
H        6.87851635      23.13418840      16.06625021      -0.28994161      -0.15859029      -0.17218429       0.90390646      -1.52602124      -1.35558236
O        6.86322346      17.76844937      14.15046441       0.92377254       0.10865205      -0.40736083       0.64914262       0.82673180      -0.41854882
O        5.91108558      18.31996556      16.06260902      -0.57212833       0.34381385      -0.72051430      -0.45473236       0.69166553       1.03826118
C        6.43781181      16.44699023      14.37364171      -0.37647456      -0.44547794      -0.86004341       0.48867089      -0.69413722       0.58494592
H        5.38803773      16.40935888      14.52878389      -0.14952022       0.13565492       0.15407535      -0.85493785      -0.07838404      -0.11202817
H        6.87429431      16.08069172      15.30135405      -0.13664204       0.13371348      -0.13822991       0.17087141      -0.14407803      -0.13539699
H        6.74436797      15.83652327      13.52474637      -0.01259155       0.21717531      -0.01641105      -0.05315601       0.22536159       0.10799290
C        8.70228812      14.62575161      -1.16927619       0.23330655      -0.39748935       0.40614458      -2.29839706      -1.97669005       0.39851290
C        8.20437862      14.34272788      -2.49749193      -1.15177930       0.06553693       0.32933698       1.55324364      -0.19614132       0.14301293
C        9.88163338      15.27748405      -0.93547656       0.13450615       0.60438451      -0.52993533      -0.85722262       1.25325894      -0.53757840
H        8.10441478      14.22908901      -0.29910523       0.01993618      -0.00609763       0.18470341       0.66719216       0.53747344      -1.08748293
C        9.00138337      14.80091029      -3.53072482       0.12827519       0.14759173       0.23289598       0.11432432      -0.47495723      -0.93477654
C        6.94789521      13.51364923      -2.77319416      -0.26266273       0.21153180      -0.51035298       0.11561416       1.34143233       1.48594880
C       10.19638296      15.53128185      -3.29921362       0.20981390       0.09160469       0.79968626      -1.91365111      -1.05073142      -0.70939302
H        8.70607571      14.53125404      -4.57055279       0.08644401       0.02476622      -0.04995610       0.38778424       0.25442699       1.06981993
C       10.55194450      15.82622775      -2.03239265       0.44044135       0.04151225       0.14933224       2.13466907       0.88645470       1.55860329
H       10.77628582      15.79414196      -4.14010293      -0.04675085      -0.09922227      -0.07806298       0.37362343       0.50190550      -0.52357674
H       11.42391909      16.49470342      -1.80994884      -0.28410269      -0.20298918      -0.12750626      -0.82353747      -0.84507746      -0.41589862
H       10.10910142      15.66253355       0.05134248      -0.09136243      -0.01872677       0.10074205       0.20644924      -0.59118235       0.02555608
O        6.90883023      12.74766838      -3.86103599       0.34844722      -0.85785102       0.30656849      -0.43372732      -0.27989012      -0.07318541
O        6.03762671      13.64924270      -1.99286585      -0.19587764       0.51961011       0.04146015      -0.49009559      -0.49096397      -0.17105719
C        5.67861553      11.95788687      -4.05788456       0.52454362       0.39835407       0.42373409      -0.72350955       0.84688258      -0.37362909
H        5.46609063      11.32657453      -3.20169382       0.26526247       0.18074400       0.16165849       0.41310832      -0.02304650       0.07766153
H        5.86868250      11.36875899      -4.96613473      -0.00218255       0.04834694      -0.23943760      -0.03449933       0.25303230       0.44882920
H        4.74461902      12.58785206      -4.19858026       0.05310702       0.01564828       0.06296729       1.53745735      -0.40410537       0.10787740
C       13.14251076      27.10705592       8.49814036       0.12954733       0.56366078      -0.74783125       0.37384388       1.23889029      -2.85692501
C       12.84826493      26.32696540       9.56924618      -0.21442396       0.86606361      -0.31782441       0.81156349       0.31928203       1.73112512
C       13.88513562      28.30074834       8.56220242       0.23861925      -0.02612460       0.22416334      -1.07442689       0.15657257      -0.11787739
H       12.82902218      26.85481844       7.46850800      -0.04157072       0.24599981       0.16248156       0.04103917      -0.24333997       0.85201585
C       13.34816855      26.71470137      10.83669506      -0.03944029       1.23428105      -0.75411909       0.80832750       1.32182622      -1.17322183
C       12.22888761      25.00131220       9.47483811       1.06297720       0.44987449      -0.68018915      -0.72175825      -0.47089499      -0.40236044
C       14.09821604      27.90078335      10.94154823       0.23062824      -1.08580275       0.33222819      -0.51941538       0.78657377      -0.27958143
H       13.24982501      26.09308660      11.68240372       0.18220392      -0.12179738      -0.15144447      -0.20958306      -0.54145026       0.64978093
C       14.28785661      28.74848751       9.82959980      -0.85418692      -0.97078729       0.47163677      -0.35683012      -1.15806770      -1.23864126
H       14.48735683      28.29036392      11.88195850       0.17785169       0.20177571      -0.09597841      -0.25606233      -0.60614085      -0.02672191
H       14.76926401      29.70733313       9.83968382      -0.00588485       0.20688462      -0.11050203       0.30501330       0.19627300       0.62415570
H       14.01188114      28.86484832       7.58562937       0.03643260       0.24871430       0.48871638       0.01113316      -0.79459518       1.73143435
O       11.99330232      24.56835011       8.23654433      -0.86501953      -0.41432968      -0.26074731       0.73994464      -0.87625551      -0.81227762
O       11.94016444      24.34191079      10.43185677       0.92958160      -0.25763873       0.52537443      -0.02815169      -0.55088228       0.97583580
C       11.73302369      23.11384293       8.09208171      -0.81756560      -0.00239552       0.81255989      -2.73488832       1.96554363      -0.52166939
H       12.42539305      22.53716694       8.59434259       0.19864674      -0.00969995       0.01658634       1.55753183      -0.90752542       1.24742484
H       11.81021855      22.90660262       7.01724239      -0.08071187      -0.17802672      -0.17140910      -0.37135020       0.20633171       0.47337463
H       10.70945550      22.93645602       8.53322780      -0.11266587       0.09871588       0.00918670       1.13407981      -0.06425302      -0.85758406
C        9.96488664      13.64733005       6.60321082       0.03719052      -0.00549973      -0.74830136      -0.84517825      -0.88056862      -0.45497483
C        9.98218048      15.02803631       6.47448798      -0.05662637      -0.11625020      -0.67805611      -0.20991394       0.16203117      -1.53227293
C       10.44686065      13.05263413       7.75305309       0.08835414       1.33654114       1.02579291       0.39668411       1.09422505       0.65640098
H        9.44929272      13.10373328       5.81061548       0.13698139       0.26160717       0.03065897       0.65256459      -0.13184801       0.22949125
C       10.45182108      15.83346847       7.47604662      -0.14596761      -0.04521346       0.31735828      -0.25380635       0.55286992       0.92665619
C        9.72984846      15.65925292       5.11010649      -0.04491115      -0.40454597       0.26100681      -0.15489221      -1.87285423      -0.19179170
C       10.83906915      15.26977549       8.69079183       0.53918294       0.05248934       1.29060194       0.44992518       0.02315804      -1.24894238
H       10.43003020      16.90039262       7.33321263      -0.19019833      -0.08459921      -0.28299421       0.24076588       0.09391424      -0.00594337
C       10.88107466      13.89158537       8.77373330      -0.30368316      -0.28085470       0.32516973      -0.30908757       0.13920832       0.60791552