896
Lattice="20.67840907554474 0.0 0.0 0.0 20.67840907554474 0.0 0.0 0.0 20.67840907554474" Properties=species:S:1:pos:R:3:momenta:R:3:forces:R:3 mol_liquid.pdb=T energy=-471520.03125 free_energy=-471520.03125 stress="0.003244556486606598 -0.0013070263667032123 0.0005464996793307364 -0.0013070263667032123 0.0035257823765277863 0.0008303743088617921 0.0005464996793307364 0.0008303743088617921 0.005986797623336315" pbc="T T T"
C        2.33875948       5.65729911      27.48135667       0.77217579       1.24102301       0.25372891       3.85993242      -3.92424345      -0.66991609
C        3.84150103       6.07340222      27.24515000       0.58848365       0.47333970       0.07124229      -1.54458666      -0.14848267       0.33460703
C        2.24410033       4.38445868      26.54769697       0.61447752       0.86078428      -0.23001573       0.07674159       0.05438093       0.61652833
H        2.20410510       5.43488350      28.50445675       0.15934761       0.24737645      -0.05714803      -0.36590087      -0.30076540       1.12132382
H        1.72236077       6.40334086      27.19576125       0.24324123      -0.25130592      -0.21374036      -2.12848186       2.25746131      -1.13900590
C        4.09988795       5.86034553      25.78846801       0.71012040      -0.68527716       0.34462963       1.22154737      -0.79214370      -1.51228189
H        4.52962998       5.45985068      27.80176615       0.15702876      -0.18301384      -0.00344284      -0.02902628      -0.17555894       0.39701641
H        3.88454531       7.08106475      27.56273092       0.07375016       0.18148650      -0.04143775       0.73403347       1.13627934       0.23935226
C        3.17205617       4.69487078      25.37503287       0.05722279       0.54690642       0.16904691      -0.43507782      -0.01154925       0.48708346
H        5.20062574       5.61246821      25.56912425      -0.00335675       0.22380879       0.06087234      -1.73193562       0.38056999       0.04759920
H        3.76456627       6.69037609      25.14661011       0.06796745      -0.07300359      -0.01691379       0.29249078      -0.06256093       0.23245931
O        3.11759285       4.12185779      24.31436218      -0.68672051       1.98878288      -0.41119301       0.51134670       0.15723696       0.08029017
H        1.22703467       4.20664083      26.21983364       0.10674134       0.14491493       0.16724738       0.05064172      -0.13384409      -0.28497759
H        2.66058627       3.40591180      26.94569129       0.18157234      -0.11219335       0.12350097      -0.47029212       1.38413954       0.08258994
C       17.25667033      -4.86820771      23.07106436      -0.07533687       0.02554949       0.79965613       0.45819965       0.35995883      -3.06611085
C       18.30573689      -4.75926446      24.16579035       0.90197913      -0.09850680      -0.27136855       0.92843103      -1.50113750      -1.58507705
C       17.05406290      -6.34734760      22.77718272       0.06200891       0.13696358       0.23613855       0.70188880      -0.61804998       0.74158120
H       16.35249495      -4.37124029      23.28704287      -0.24573310      -0.14175801       0.26549515      -1.28881121       0.23213802       0.85918134
H       17.47954463      -4.38154539      22.06245426      -0.34348452       0.07154706      -0.07158823       0.40633315      -0.32372287       1.48996544
C       18.24443589      -6.09597619      24.91714560       0.32507119       0.30188527       0.25511433       0.26144832      -0.74239957       0.99985528
H       18.18608049      -3.93382510      24.77708557      -0.01050062       0.11560968       0.21463269      -0.54642868       1.50086033       1.41380882
H       19.24864912      -4.56739664      23.66409699      -0.17911620       0.04311885       0.12638893       0.42869478      -0.37969190       0.12036638
C       17.32184345      -7.00279244      24.12943518      -0.63515941       0.13475601      -0.06082524      -1.23644340       0.15125319      -0.27974448
H       17.86647024      -5.96230170      25.95333332      -0.24440406      -0.00370043       0.18520809       0.30539301      -0.32704777      -0.72021663
H       19.15636066      -6.72143283      25.00712962       0.05558368      -0.10403775      -0.13884078      -0.08401977       0.88846946      -0.06466471
O       16.80812131      -8.03331959      24.50575407       0.05788313       0.31417258       0.18448082       0.40313208       0.16224031       0.11397421
H       17.84439430      -6.78632146      22.14256210      -0.00222907       0.21738709       0.01877943      -0.09177253       0.48577967       0.00848251
H       16.11573238      -6.62646732      22.33015211       0.02807271       0.03398293      -0.05201870      -0.32110214      -0.07271606       0.01583826
C       18.25033839      37.92000467     -21.82063735      -0.15136402      -0.64201335      -0.48619186      -0.06284997       1.91023552      -1.91437435
C       17.34690027      37.28395834     -22.87509870       0.11579687       1.43352331      -0.20448370      -0.80726051      -0.98326528      -0.78191984
C       19.35997813      38.72751294     -22.59157061       0.06501418       0.93744430       0.38632933      -2.39813280       0.11787538      -0.73915398
H       17.51662758      38.58717345     -21.39480334      -0.09048194       0.40175133      -0.36698620       0.51752323       0.50209594       1.01253211
H       18.71232369      37.29971790     -21.14753571       0.13453081       0.13710731      -0.00153846       0.43825352      -1.61213362       1.79869318
C       17.25606317      38.37239545     -23.98427000      -0.19094980      -0.76068855       0.13359475      -0.18387540      -1.58151484       0.39098966
H       16.31009015      37.06133574     -22.46551358      -0.01284418       0.10094542       0.02652602       1.35461974       0.15742244      -0.41990685
H       17.74189214      36.33744479     -23.29575763      -0.07583432      -0.07144815      -0.03652189      -0.10508207       0.57385528       0.28604752
C       18.44938147      39.22188261     -23.78468307      -0.53249771       1.43083841      -1.02673823       1.60656548      -0.30256838       1.53811812
H       16.34825717      38.94622985     -23.88118015      -0.01617358       0.06918681       0.18327402      -0.14429386       0.37008029      -0.11237040
H       17.27301723      37.97497532     -25.00669097       0.23064207       0.05277805       0.12121684      -0.11969484      -0.03704549       0.44228691
O       18.68553342      40.21014724     -24.40126692       0.17180128       0.49614203       1.00497799       0.23089762       1.56719756      -1.21996558
H       20.09983180      38.06677309     -23.00324928       0.03279328      -0.17682035       0.34115880       0.14623120      -0.44932905      -0.13229452
H       19.90700638      39.56690912     -22.14087945      -0.07690782       0.13533682      -0.07648397      -0.65312362      -0.28561836       0.20834035
C       15.57153509       3.15600121      -3.05968162      -0.06294489      -0.21977285       0.45567797      -1.19070578       0.00966251       0.10735523
C       16.53040203       2.02092292      -2.98787808       0.85509298       0.07498360       0.73691015       1.28091788      -0.23728520       0.78819889
C       15.74064116       3.69012968      -4.44506297      -0.45133738       0.35116860      -0.26080937       2.18984604      -1.19921136      -0.22890189
H       14.59131402       2.75822647      -2.94528865       0.00964438      -0.21290177      -0.08851849      -1.05282760       0.03112258       0.44311109
H       15.80068157       3.82847493      -2.25979609       0.05106033      -0.14020727      -0.00384120      -0.00156687       0.74875772       0.28108633
C       17.76657193       2.54554041      -3.66921732      -0.00724784      -1.07341516      -0.21331210       0.10972312       0.73953724      -0.73745555
H       16.16344015       1.12666826      -3.50133688      -0.08434065      -0.05162281      -0.28163962       0.07963079       0.12563263       0.26540175
H       16.84227543       1.82571274      -1.96962484      -0.17536286       0.29763858      -0.06816398      -0.55281830      -0.58420426       0.18756346
C       17.20436028       3.43297879      -4.76945413       0.24371975      -0.51255537       0.32409464       0.69182271      -0.66096562      -0.55717987
H       18.29885330       1.70990353      -4.06141423       0.25112988       0.06008933       0.09283031       0.97797704      -0.17424038      -0.44430095
H       18.40231638       3.21412736      -3.05802053       0.09761099       0.04594401      -0.14758787      -0.32209238      -0.58111125      -0.04203484
O       17.78429810       3.74031185      -5.79336851       0.33009337      -1.39347998       0.14781439      -0.70851409       0.26380777       0.67003238
H       15.46115862       4.60194034      -4.82284543       0.16845509       0.01032619       0.11676377      -0.62386858       2.53833127       0.02028374
H       15.25603830       3.04706020      -5.13345340       0.14060747      -0.13735251       0.13959486      -0.71644878      -1.07902801      -0.65871912
C        7.33157913      24.53245899      -4.05341958      -0.12252498       0.39151861      -0.49077553       0.47300476      -1.63831890      -0.06576328
C        7.55060679      25.52973177      -2.92723846      -0.64508095       0.98996260      -0.82430235      -0.07999442       0.01814310       1.44880319
C        7.37960661      23.16153514      -3.33608251       0.56635314       0.02078167      -0.87948054      -0.27926537       0.76950657       0.10813008
H        6.34085117      24.60468167      -4.54850624       0.04628832       0.18034666       0.19191064       0.67586666       0.35333899       0.38406849
H        8.12003113      24.51149267      -4.82158481      -0.19215624      -0.03869149       0.13451153      -0.46570712       0.36854610       0.13194489
C        6.91618229      24.93322193      -1.61504815       0.03841069       0.28266464      -0.03998348      -0.27440122      -0.55300260      -1.76164770
H        7.11334858      26.45944502      -3.16400928       0.16127453      -0.10628292      -0.28795011      -0.53978395       1.10946071      -0.11209638
H        8.58615687      25.78259940      -2.62927850      -0.13051748      -0.18123256      -0.20590833      -0.38846293      -0.60752344      -0.73510027
C        6.85190661      23.41093081      -1.93791805       0.90581009       0.03432531      -0.31884475       1.97553122      -0.40782869       1.47330201
H        5.95269433      25.33341984      -1.32705574       0.24963460      -0.14646006       0.05461689      -0.23705113       0.17599922      -0.47248334
H        7.55465177      25.15540569      -0.78127602      -0.10533657      -0.05739512      -0.27989341       0.35469002      -0.41921589       0.42495853
O        6.85453630      22.52969068      -1.08553388      -0.62037623       0.35879250       1.23069251      -0.77610791       0.73783278      -0.74084717
H        8.42638825      22.90604180      -3.07328147       0.09739201       0.02004628      -0.08434338      -0.38891903      -0.06979670      -0.56177777
H        6.90169942      22.34704753      -3.87315776      -0.15283065       0.13726264       0.17895305       0.15833956      -0.04547762       0.16606976
C       21.32634619      12.76356493      34.24237574       0.29491596       0.17299910       0.19052483       2.36913896      -1.00156593       1.85160232
C       20.34579146      13.89534443      34.29345695       0.74267644      -0.15163653      -0.95400268      -0.35197636       1.65567255       0.48558870
C       20.57601635      11.47086454      34.01654424       1.08368545      -0.22972595      -0.29699034      -1.59104109      -0.73576671      -0.34741861
H       22.18974381      12.85015070      33.55345506       0.42182883      -0.02920251      -0.16780811      -0.73916864       0.21948735       0.52142239
H       21.72347542      12.63905122      35.28879014      -0.01961608      -0.03530989       0.26971355       0.19207245       0.31425300      -0.91854900
C       19.04562567      13.25022778      34.68864093      -0.80779892       0.19121018      -0.18934127      -2.00331116       0.76520860       1.04616857
H       20.26010569      14.35947419      33.32557683       0.10931503      -0.05339831      -0.19890671      -0.11938114       0.17342342      -0.49705726
H       20.51625790      14.75678283      35.01125385      -0.20241158       0.26203196      -0.14256997       0.51070482      -1.26536191      -0.80405295
C       19.20838578      11.75121492      34.68888660      -0.39558294       0.63130081      -0.29181852       1.00397706       1.09916008      -1.08912456
H       18.24650878      13.57769531      33.99560101       0.16732471      -0.06473552      -0.21669263       0.16910131      -0.52107584       0.44760418
H       18.66510913      13.56347089      35.70897798       0.03160270      -0.05245301      -0.16474760       0.46964675      -0.34139565      -1.13819003
O       18.41992992      10.98287776      35.16277029       0.27591850      -0.71483862      -0.04572109      -0.29337493      -0.74137652       0.20533481
H       20.94195793      10.54645157      34.49763294       0.24670617       0.01038592      -0.02556779       0.40163893       0.70245826      -0.62796116
H       20.38238809      11.34148068      32.91941661       0.34114759      -0.14760323      -0.09130184       0.03391667      -0.21996090       1.10014796
C       12.40777636      22.06252368      36.03880960       0.62895433      -0.93902257       0.15792760       0.32132015      -0.19245213      -0.04093904
C       12.30554125      21.10914448      34.81187906      -0.19294721      -0.47521765       0.61041217       1.26997399      -0.97970778       0.40490961
C       11.02112620      22.62329036      36.38760534       0.33509975       0.37402225      -0.21438867       0.25613213      -0.38419932      -1.26004148
H       12.74688208      21.49440787      36.87486836      -0.18746389      -0.26784156       0.16724864       0.42900836      -0.34630316       0.56771684
H       13.13376105      22.84169644      35.83632361       0.07403150      -0.31224587       0.17401775       0.06799370       0.12517340       0.07465941
C       10.85394299      20.77468033      34.69510078       0.23533522       0.49581200       0.58256272      -1.91095722      -0.55291486      -1.27942753
H       12.97525977      20.15662924      34.90137734       0.08456020      -0.07282646       0.10768653      -1.14064837       2.14118862      -0.03860249
H       12.55502543      21.68982263      33.90995975       0.10221738       0.19563251      -0.22238939       0.37423164      -0.43987581       0.25040656
C       10.08575112      21.78688977      35.53498683      -0.91378972       0.94916063       0.95088809      -1.77629995      -0.31015822      -0.58191055
H       10.44437314      19.76525316      34.98383316      -0.21380725       0.19847813      -0.09417895       0.91269958       0.89653778      -0.13716042
H       10.53122660      20.91816499      33.61820232      -0.09153940       0.27802595      -0.13810636      -0.02024172      -0.22656424       1.24032009
O        8.86740243      21.89845274      35.43749385      -0.53422018       0.78448678       0.33224643       1.38661337       0.12849730       0.51985902
H       10.92379956      23.65019163      36.02862924      -0.11422779       0.22005369      -0.11840756      -0.17970009       0.03713296       0.34419072
H       10.77692744      22.50772141      37.43380404      -0.30539493       0.11249935      -0.06626125      -0.10135604       0.21592776       0.12961438
C       13.33710521      10.69412240     -17.98407061      -0.27602812      -0.13911573       0.68842560       0.77271241       0.29324579      -0.79090905
C       13.91301331       9.73674432     -16.92909249       0.91937235      -0.75895100       0.30878762      -1.33174443      -0.37129790      -0.36605299
C       12.18582076      11.31272850     -17.22918722      -0.32034191       0.13662517       0.63755945      -0.01138958       0.90370560       0.99934864
H       14.10987247      11.51269057     -18.26903751       0.22148599       0.01342696      -0.03646721      -1.25209987      -1.38847065       0.40525746
H       13.03134248      10.14417329     -18.87663118      -0.09635896       0.06291475      -0.03629399       0.12552400       0.27407232      -0.05512875
C       13.97071303      10.57538346     -15.66958913      -1.23940571       0.48981489      -0.84929119      -1.81958938      -1.25459194       0.30069748
H       14.78531374       9.26440555     -17.25570601       0.18780316       0.03269458      -0.11580792       1.77776122      -0.26970148      -0.23569542
H       13.22782428       8.87316504     -16.78153394      -0.15851834      -0.24781245      -0.17090923       0.20369254       0.88513923      -0.07906719
C       12.83297257      11.56991129     -15.86867961      -0.09312403      -0.47712332       0.08839998      -0.32030928       0.74744111       0.72814840
H       14.89044289      11.05957339     -15.52405839      -0.01119057       0.03574115       0.15162502       1.16515052       0.70737231       0.34154648
H       13.68219647       9.94068571     -14.81147114      -0.10327026       0.07224127      -0.03015187       0.43390489       0.54439974      -0.10450653
O       12.50023256      12.44628524     -15.08618363       0.32775594      -0.02204279      -0.23761494       0.11490333      -0.95378280      -0.71153891
H       11.33608396      10.65229777     -17.02535885       0.03558345      -0.22582163      -0.11120938       0.24080630      -0.24390686      -0.27172780
H       11.77186151      12.25418544     -17.56994112      -0.12974242       0.06301803       0.02103592      -0.00468003       0.07518606      -0.35354269
C       21.59269931       7.26076664       0.37162137      -0.53134695      -1.27170188       0.95549108      -0.03451094       1.52009702      -0.66127086
C       20.90871813       5.90493296       0.20485716       0.58049417       0.13216799      -0.48408504       1.11447608      -0.65596509      -0.72597611
C       22.24788481       7.15204633       1.72837894       0.52092031       0.47527813      -0.94420032       0.18079706       1.76585031       1.02613437
H       22.28213466       7.59158704      -0.45719099       0.18318084       0.01305453      -0.09319907      -0.64963996      -0.77958632       0.82167470
H       20.82538974       8.07349181       0.41721767      -0.05663909       0.08914551      -0.00927329       0.45290321      -0.59698015       0.06105073
C       20.44120614       5.50538483       1.63105824      -0.53498953       0.48450547       0.06796526      -0.92053139      -0.65562236      -1.15165567
H       21.65197218       5.26020098      -0.31193993      -0.19742545      -0.01119036      -0.02501490      -0.24444427      -0.14455821       1.01966286
H       20.14732539       5.90943441      -0.53533298      -0.03905892      -0.01503315       0.00888466      -1.02560806       0.23879863      -0.32125825
C       21.36193853       6.25103237       2.52580735      -0.72441907      -0.70775834       0.17219874       0.25986570      -0.31195638      -0.46665782
H       20.61942472       4.45206296       1.96152922       0.13135467      -0.01232458       0.26268509      -0.56884986       0.67364419      -0.68939459
H       19.34918237       5.77751966       1.73909706      -0.06041869       0.07521016      -0.08802004       1.23156500      -0.30954719       0.22731860
O       21.52264904       5.93078280       3.66269410       0.49253841      -0.38876125       0.41560389       0.04364191       0.45463207       1.79797792
H       22.45535175       8.10966207       2.25493488      -0.03395510       0.20195199       0.20980898      -0.54177302      -0.42741957      -0.40649840
H       23.21613332       6.68745311       1.78425896       0.36819267      -0.03720941      -0.27713186       0.46147233      -0.59083456      -0.49184906
C        0.71273870       9.50545160       9.86612837       0.26739542      -0.56890075      -0.28231925      -1.09428442      -1.15817833       0.37267050
C        1.68149597      10.66250009       9.97072257      -1.08097963      -0.62727778      -0.56502603      -0.46826911       0.59364581      -1.15297961
C       -0.06634254       9.73358957       8.54290197      -1.10386050      -0.28988231       0.37373422       0.96542656      -0.32062799      -0.34279266
H        1.23544813       8.50777513       9.88206897      -0.24326529      -0.27601475      -0.18041752      -0.84300780       0.92028725       0.27213174
H       -0.05122292       9.65384667      10.68792365       0.39474859      -0.04578555      -0.23022529       0.99404418      -0.77876127      -0.64696640
C        0.73829187      11.80883215       9.53050483       0.38994057       0.59460266      -0.06771061       0.65572673       1.81568575      -1.54074550
H        2.50928504      10.52153827       9.22170105       0.40956853       0.02976339       0.16130333      -0.82445270       0.40842789       0.72799909
H        2.10119690      10.78704068      10.95700882      -0.14762790      -0.19702858      -0.16339579       0.14768392       0.02346167       0.20850204
C       -0.09318387      11.21809259       8.35616684      -1.11489871      -0.19048343      -0.01335300      -0.15020533       1.22175491       0.43852532
H        1.26504517      12.70913645       9.10011250       0.01334232      -0.10570103       0.30619595      -0.41621223      -0.80298305       0.62287593
H       -0.00879527      12.21311837      10.25330434      -0.19682400       0.18132685       0.57804247       0.68365288      -0.66871285      -0.11167440
O       -0.67688806      11.87801367       7.51324767      -0.00465156      -0.30881619       0.61255223       0.61910284      -0.91778064       0.82566911
H       -1.05604188       9.34825875       8.43887889       0.05996739      -0.03665116      -0.16055949      -0.62529743      -0.39475894       0.42806554
H        0.44796693       9.27541545       7.69857985       0.14815171       0.08804066       0.01806497       0.20443115       0.08586141      -0.13758448
C       28.10632900      -1.23290642       9.40263194       0.79453939       0.78317842       0.72875841      -0.18635929      -1.51362479      -1.09159732
C       28.93351936      -1.67450442       8.15489302      -0.66956697       0.07357141      -0.52026042      -1.24515390      -0.42197731      -1.74741828
C       29.01569002      -1.71999588      10.47218565      -1.03319484       0.42461884      -0.59259564       1.54049671      -1.53932476       2.44557500
H       27.95831382      -0.21465798       9.56839637      -0.07072020      -0.01506722       0.16151153      -0.50739372       1.74893117      -0.43368304
H       27.14965110      -1.77696064       9.36144141      -0.05459109      -0.16822238      -0.20836827       0.19960429       0.33349958       0.31373635
C       29.39620463      -3.08603976       8.49044416       0.74279519       0.71887210      -0.09355854      -1.32353497      -0.09659651       0.69219363
H       29.81604514      -1.10360039       8.01685583       0.25771213       0.05804465       0.03047680       0.77307260       0.94963312       0.12333073
H       28.44060307      -1.66625641       7.11883045      -0.33690594       0.11389240      -0.23913867       0.16511445       0.16448919       1.71551895
C       29.37297635      -3.12192927      10.01080854       0.56922166      -0.55050297       0.40050591      -0.18485028      -1.19777155       0.44221979
H       30.35035587      -3.29919106       8.11913296      -0.21056761      -0.11541276       0.11367018       1.50156319      -0.23324829      -0.43323055
H       28.74207691      -3.85442487       8.08409711       0.10311217       0.08719297      -0.05644449      -0.18733643      -0.05667828       0.19461466
O       29.46947850      -4.12775239      10.70850681      -0.11626372      -0.63541141      -0.85684198       0.15387410       1.37294388      -0.78842533
H       28.82583188      -1.78376245      11.57878508       0.03200198       0.07297927       0.05862053      -0.66227889       0.35933977      -1.21031857
H       29.94051900      -1.12913790      10.41522041       0.22589497       0.02260314       0.16095785       0.02154412      -0.05441003      -0.10555263
C        6.16875011      18.37468268       3.55058177       0.93632217      -0.75959360      -0.01072901       0.93694770      -0.13266549      -1.66410708
C        6.28437770      19.65634298       2.60655867       0.28708885      -0.78754757      -0.51398385       0.53768682       1.48758340       1.37346721
C        4.69612560      17.97082466       3.44093137      -0.52611645      -0.67827773       0.18054423      -0.78119802      -0.29832214       0.61126864
H        6.87659693      17.55598818       3.17472988      -0.04474501       0.07313985       0.11347550      -1.30246425       1.15710378       0.62275302
H        6.47109301      18.65977080       4.57161105      -0.04680368       0.08929174      -0.00633593      -0.23545863      -0.30083767      -0.49380058
C        5.12757132      19.63837789       1.60817875       0.69504809      -0.48182989       0.12359849      -0.52669346      -0.60733122       0.35148367
H        7.28518795      19.77917023       2.13828394       0.03092361       0.19888998      -0.08045344      -0.66723084      -0.37853777       0.14552857
H        6.18955962      20.62309167       3.23703797       0.15948167      -0.13066845      -0.00040453       0.02756412      -1.68424273      -0.83035338
C        4.02379093      18.80134582       2.35799145       0.47722747      -0.03214815      -0.53271764       1.11125851       0.56898451      -0.23172019
H        5.42461894      19.05082901       0.71751390       0.12911250       0.00595009      -0.04213773      -0.38511771       0.32640719       0.24477941
H        4.78449623      20.65601317       1.32662025      -0.34863090      -0.00410712      -0.10060762       0.16214839      -1.13546968       0.00699451
O        2.83432073      18.81655935       2.15835891      -0.93248581      -0.00246589       0.20917796       0.18520270       0.02564382      -0.48461807
H        4.21401839      18.23210714       4.40201750       0.11050216      -0.04398600       0.18670577       0.04544207      -0.15355983      -0.60207218
H        4.40492697      16.90272718       3.22765661       0.04226289      -0.02301250       0.00493468       0.87096977       1.02999496       0.23511109
C       24.30754816      21.12845262       9.92743613      -0.31688832       0.60246476       0.46353924       0.44775289      -0.28328288       0.54184848
C       22.98684230      20.39207713       9.71467010       0.01496823      -0.38767714      -0.96753968      -0.31871200       0.44660968      -0.11369202
C       24.89862134      21.19925973       8.49120616       0.35751524      -0.09194410      -0.34187370       1.64161277       0.63138407       0.86205947
H       24.24927805      22.05989864      10.52998007      -0.06986915      -0.05145582      -0.33503082      -0.07414182      -0.39753562      -0.96016985
H       24.91260913      20.47352959      10.57032247       0.02664543       0.38679513       0.08597492       0.04307052       0.04671240      -0.33757183
C       23.38985063      19.32494761       8.71197142       0.02282654       0.31188629       0.53031932      -0.05620025      -0.35838830      -0.25963369
H       22.23665909      21.04980697       9.23695911      -0.24274909      -0.04207506       0.13063320       0.15887269      -0.16643064       0.54240501
H       22.62032086      19.96387683      10.66240938      -0.00894040       0.09756434       0.14537871      -0.11739443       0.26083878      -0.59541160
C       24.48879896      19.90668701       7.82408190       0.08851779      -0.07839272      -0.29455945      -0.29851925      -0.58908403      -0.00409597
H       22.58355365      18.97186666       8.07595783      -0.02258533      -0.08311721       0.15947959      -0.01425032      -0.33467248       0.18698081
H       23.84058145      18.53032598       9.30450414      -0.15430450      -0.02494888      -0.10489066      -0.00180086      -0.48197824      -0.36381918
O       24.93170369      19.37543374       6.81194312       0.06091630       1.40623315       0.00803334      -0.21714005       1.16833282       1.32902503
H       26.05002611      21.24973095       8.50302762      -0.04106188       0.17524630       0.09692308      -1.85219312       0.51033401      -0.37205073
H       24.37820029      22.05242763       8.01105303       0.22699399       0.20679013      -0.02536751       0.84571630      -0.41973171      -0.21626180
C        7.59599977      21.69563446       5.29821785       0.19375086      -0.34349237       0.20627298       0.23947912      -0.19644222       1.24280202
C        8.14687323      22.13472703       6.67243325      -0.26018500       0.17374457       0.22525653       1.32743967      -0.76034236      -0.34958321
C        6.13000490      22.00359140       5.46615506       0.20058654      -0.25755080      -0.51979169      -0.72955143      -0.79049098       0.68673611
H        8.11085634      22.28068297       4.54575811       0.12981758       0.33454942       0.14001430      -0.45841679       0.04332782      -0.10653800
H        7.79507028      20.63613897       5.14616183      -0.01715690      -0.09896907       0.15999167      -0.06096211       0.10381275      -0.23553270
C        7.42148645      23.40310936       6.97558009       0.78031418       0.81064417      -0.65673436      -0.12530446       1.44536114       2.15445828
H        9.23802988      22.13393781       6.62340801      -0.22468270      -0.06204160       0.20832909      -0.13312243       0.63906515       0.10466848