1024
Lattice="21.626420572603163 0.0 0.0 0.0 21.626420572603163 0.0 0.0 0.0 21.626420572603163" Properties=species:S:1:pos:R:3:momenta:R:3:forces:R:3 mol_liquid.pdb=T energy=-604355.9375 free_energy=-604355.9375 stress="0.004210743121802807 -0.002225878881290555 0.0016645558644086123 -0.002225878881290555 0.0015028603374958038 0.002518880646675825 0.0016645558644086123 0.002518880646675825 0.003277607262134552" pbc="T T T"
C        9.78071370      11.60324629      17.42282966       0.31505161       0.12581929      -0.30808638      -2.80758429       0.90983540      -1.75015807
C        8.41216502      11.63728270      17.81774113      -0.12234378       0.26042122       0.30625492       0.43267450       0.13572696       1.31118393
C       10.76011939      11.38848322      18.31215682       0.26579007      -0.19740575      -0.20385656       2.86886835      -0.46393737       1.36008358
O        9.95818587      11.95687337      16.11028290      -0.75998519      -0.06868380      -0.68637019       0.91251040      -0.08861853       0.60347772
C        7.26383172      11.98097507      16.94103549      -0.21569143      -0.09679759       0.26164729       0.17330623       1.05142021      -1.82909608
C        8.17036535      11.44991089      19.15538186       0.12029989       1.12934431       0.29811217      -1.01224482      -0.69821215       1.48812485
H        7.11875141      11.21086411      16.21340268      -0.23716377      -0.42947142       0.10189889      -0.28717232      -0.79480219      -0.32889661
H        7.46955605      12.82010372      16.24978676       0.28106809       0.22428050       0.19037488       0.23208308      -0.10353430       0.55112016
H        6.28527754      12.20592683      17.36552530       0.04579921       0.10638951       0.22487415       0.41654119      -0.28654516       0.65783060
C        9.17882800      11.01390851      20.08069554      -0.40752265      -0.97178809      -0.08412718      -1.20022631       0.76312172       0.47153372
H        7.10081399      11.63517873      19.46260904      -0.22404999       0.27344106      -0.16761610       1.55934656      -0.52049160       0.04237815
C       10.48005805      11.00229130      19.62760032      -0.60909152      -0.70176843      -0.07264660      -1.29723215       0.48796910       0.09046959
H        8.94073182      10.86732826      21.17940714      -0.10240095      -0.12689244       0.33057719       0.19515112       0.03378764      -1.64059711
H       11.23279836      10.82834250      20.35263040      -0.20842528      -0.07699113      -0.03979853       0.88376164      -0.21903796       0.19794223
H       11.84109417      11.55689963      18.11106132       0.14795273       0.04069988       0.00695509      -0.97542846      -0.27774349      -0.46981153
H       10.85105724      12.32323373      16.06325843       0.23205497      -0.05299832      -0.36516966      -0.09307092      -0.05920725      -0.57255900
C       -7.75269647      12.84035092      -5.52635445       0.01503739      -0.46456621      -0.39250825       2.40180588      -2.33980465       0.05239332
C       -8.30789703      13.97089358      -5.00177704      -0.49334688       0.44382755       0.17150938      -2.46057415      -0.38675770      -0.62255496
C       -8.12021178      12.17648772      -6.70027807      -0.22690713       0.88714522      -0.34356716      -0.52683979       1.63453114      -0.24950834
O       -6.60201200      12.27053232      -4.89153078      -0.18771635       0.91450917      -1.05659181      -0.38081810       0.99959481       0.14030328
C       -8.00065274      14.49118101      -3.65133269      -0.37886000       0.02230243       0.44079463       1.93892789       0.50615680      -0.14675874
C       -9.44161903      14.40751536      -5.73448003       0.43659212       0.21073722      -0.00151141      -0.17491022       0.05922151      -0.38855034
H       -6.96780354      14.24740779      -3.37888249       0.02991985      -0.13065762       0.15129163      -0.10033084       0.19745213      -0.18049449
H       -8.56011269      14.11348461      -2.83719498       0.22625449      -0.10965973      -0.01246195      -1.10051775      -0.67701298       0.48120016
H       -8.10002783      15.55888938      -3.62673841       0.20053665      -0.17874136      -0.23649382      -0.06868675       0.58672702       0.02957734
C       -9.87617984      13.82398049      -6.92969628       0.71703234       0.30463292       0.37724157       1.33351183      -0.16107497       0.78719383
H      -10.05470957      15.21552830      -5.37742165      -0.25993524       0.13403956       0.14207422       0.24885665       0.27473831       0.19967267
C       -9.16823035      12.73564677      -7.43986075      -0.28308951       0.48071255      -0.69770235       0.66613901       0.00936547       1.41348672
H      -10.72527251      14.20098358      -7.45718612       0.25904634      -0.11170315       0.11853524      -0.27342921       0.21920852      -0.13981351
H       -9.42168366      12.35358039      -8.37361598      -0.01989825       0.01950998       0.18335902      -0.35999730      -0.58998591      -1.21931076
H       -7.46349021      11.39180803      -7.05548118       0.15605943       0.09718203       0.10262632      -0.44576341      -0.02916550       0.08526903
H       -6.69780133      11.33609448      -4.68591685       0.06221923       0.24227272       0.01578093      -0.27506638      -0.25655359      -0.20207544
C       -0.50449864       5.95963072      -0.05696164      -0.95559776      -0.54387149       0.09994509      -1.70198989      -0.61652851       1.70944357
C       -1.89423057       5.72507192      -0.13773502       0.70414171       0.03575195      -0.57862554       0.74146998       0.09052503      -0.03869298
C        0.18158606       5.70002513       1.15092950      -0.10293528      -0.00716294       0.52731914       1.15753126       0.60558349      -1.97520971
O        0.09071988       6.41651019      -1.14729979       0.70091379       1.70723084       0.71438692       2.60321045      -0.12501276      -1.28057528
C       -2.54195688       5.61605041      -1.50922379       0.12856340      -0.31425199       0.04974167      -0.08440227      -0.51755464       0.72170883
C       -2.56326508       5.40920533       1.05126983       0.26799644       1.03021827       0.20295219      -1.06912422      -0.10990745      -2.09966660
H       -3.65432454       5.57902893      -1.34543528       0.39335341      -0.24592779      -0.28546671       1.13510942       0.25997901      -0.78273886
H       -2.18411034       4.66750863      -1.94922779       0.05088216       0.29126200       0.07223698      -0.53893244       0.13766566       0.22824889
H       -2.13998260       6.35063624      -2.21488670       0.06575086      -0.12611169      -0.10057566      -0.76874518       0.29929814       0.28146759
C       -1.90393575       5.28948535       2.23027350      -0.19616057       0.03272896       0.31837764       0.48818043      -0.46943527       1.53280699
H       -3.64739438       5.19282928       0.94074341       0.05918833      -0.01625994       0.16328233       0.85883629       0.10182590       0.42296824
C       -0.51841249       5.47379244       2.30135196       0.80810740       0.03970808       0.00764632       0.89183801      -1.00748587       1.20861602
H       -2.43944665       4.88102025       3.07517858       0.16714588       0.36715295      -0.08004423       0.05537251       0.38909772       0.14085038
H        0.12437723       5.31919016       3.21989694       0.38514640       0.06232152       0.05021878      -1.35808992       0.00828336      -0.96375000
H        1.29347147       5.61672449       1.02990285      -0.11994599       0.04074236      -0.12540700      -1.09368134       0.37951061       0.72077590
H        1.09212559       6.46890069      -1.00949353       0.10443760       0.20996880      -0.12612479      -1.56235766       0.27025902      -0.21285489
C        9.20480128       6.90722375      17.70700751       1.24863931       1.11707186       0.24759263       1.34445381      -1.51308393       0.40594119
C        8.56982863       7.00111401      16.45297111      -0.13143676      -0.09887826      -0.39687847       0.67336321       0.29253882       0.88907278
C       10.06474519       5.79346543      18.13281663       0.14874595       0.65302436      -0.48016800      -3.42279100       2.25366831      -3.30292034
O        9.15320676       7.89454503      18.66118961      -0.39459915       0.71709192      -0.74183615      -0.30660224      -0.05947310      -0.02866337
C        7.86821904       8.29553216      16.07292871      -0.86898448       0.54160895       0.59754806      -1.90781832      -0.39542997      -0.34931606
C        8.77335519       5.94784983      15.54056527       0.22058862       0.33760256       0.48986516       0.44566071       0.75580764       2.53704023
H        8.59162323       9.11085162      16.03218601      -0.08126352       0.00567917       0.03348230      -0.40772948       0.05027862       0.56375003
H        6.87617541       8.50485046      16.62351787      -0.31411491       0.05969332       0.10174234       1.95562768      -0.09767219      -0.03920016
H        7.42630362       8.26096932      15.06478647       0.07190182      -0.02618443      -0.16081973       0.74224377      -0.39533788       0.18858957
C        9.55224880       4.87645195      15.90854937      -0.33560259      -0.14537155       0.15190011       0.37816939      -0.93107504      -1.05609679
H        8.25600140       6.07275233      14.65957726       0.13612255      -0.16444324       0.01266162      -0.67246026      -0.24138714      -2.12117887
C       10.16723525       4.82654661      17.14274197      -0.20143858      -0.21230077      -0.49957655       2.12779307      -1.61677623       2.28850889
H        9.78382471       4.03592033      15.22366243       0.11322995      -0.07528769       0.00308903      -0.41077775       0.86586428       0.48160702
H       10.85224843       3.95391622      17.39935553       0.01337443       0.10848960       0.11917016      -1.08917189       1.07477617      -0.64553326
H       10.38627992       5.90354849      19.13360656       0.20726609      -0.03066889       0.22248839       0.94341803      -0.71185517       0.43226558
H        8.63042854       8.62861750      18.35064457       0.00899398      -0.10069596      -0.05968958      -0.27634403       0.52315754      -0.11781316
C        8.99319690       8.86674930       3.74085899       0.24294286       0.70984469      -0.14471418       0.34618881      -0.62947434       0.92599994
C        7.81274846       9.07228811       4.49069908       0.12978686       0.40083071       0.15079272       1.18114460       1.26168728       0.98412639
C        8.97580072       8.04960921       2.61708075       0.07152774      -0.19160375      -0.55357151      -0.19837692       1.19905818      -0.11601108
O       10.20974689       9.39167716       4.20298140      -0.13344367      -0.44007179       0.09358628      -1.90606928       0.90499043      -0.38345978
C        7.81889215       9.89207602       5.78587525      -0.28731018       0.23494837       0.56128426      -0.40443113       0.82344240      -0.91957188
C        6.64366920       8.51252954       4.05314433       0.26643533       0.33979915      -0.21110055       0.25146940      -0.44123536      -0.98449033
H        6.85216293       9.86797019       6.25506229      -0.20410777      -0.16295298       0.00684029      -0.45992339      -0.27247283       0.01912400
H        8.04966883      10.97733023       5.72042723       0.17614630      -0.10633658      -0.09975341       0.08446003      -0.70346105      -0.59140354
H        8.49170064       9.49983738       6.49393314      -0.05973554       0.07357013      -0.08677498       0.98196828      -0.62503862       0.72806877
C        6.60082586       7.74642945       2.89681245      -0.57391016      -0.54705116       0.41273962       2.08873034       0.56425357       0.06314602
H        5.75268099       8.65117892       4.59158676      -0.21066269      -0.02643319       0.09935219      -0.89922017       0.24370311       0.75827515
C        7.75756862       7.53080460       2.16727235      -0.65008005       0.36500826      -0.03858319       0.54806900      -0.87026942      -1.49865317
H        5.75454202       7.31331416       2.51410147      -0.32645495      -0.06524335      -0.07629520      -2.18768311      -0.83445561      -0.39588758
H        7.71419770       6.94547604       1.17924487      -0.07646135       0.11333260      -0.03858020       0.07508374       0.97157460       1.85506034
H        9.89233840       8.07884669       2.04550967       0.18581338       0.00506597       0.03810600      -0.06098561      -0.67843360      -0.14983763
H       10.92796650       8.76206388       4.14512106      -0.04039426      -0.19279268      -0.39003167      -0.06274584      -0.74229079       0.03587045
C       10.02118792      14.17587966       7.06744495      -0.53772996       0.83173013       1.15887776       0.70053852      -0.59150326       0.31179506
C       10.63491661      14.85111040       6.03878511       0.03239914       0.30300786       0.11076389       0.45128655       0.56909221      -1.61658645
C        9.06113158      14.82583929       7.78317352      -0.76039454      -0.62078500       0.59565592      -1.10486317       0.24865018       1.49722338
O       10.35600784      12.88015431       7.45459486      -0.06562291       0.27465955       0.03750487      -0.16858053       0.90191168      -1.15478027
C       11.65078219      14.28904895       5.05303674       1.47631246      -0.09300466      -0.32738627      -1.06061184      -1.18205178      -0.61751765
C       10.14494988      16.12198291       5.68044780      -0.75614472       0.07798196      -0.14860640      -0.87267619      -0.43176118       1.68063641
H       11.42838538      14.80662873       4.11054396      -0.14426956      -0.08481079       0.12572434       0.37671983      -0.50338143       0.19094294
H       11.56275728      13.18013830       4.87530696       0.33349245      -0.17900024       0.20116430      -0.08552592       1.15994084       0.22041827
H       12.68413540      14.45490070       5.26205809      -0.04844965      -0.10934560       0.26073071       0.56064534       0.28562266       0.55049968
C        9.16413645      16.80488281       6.40186960       0.10159396      -0.96072534      -0.03516166       1.18212402      -2.99514627       0.98283148
H       10.55038446      16.54851654       4.82378467       0.27718249       0.04470257      -0.19118939       0.57665360       0.75004792      -1.15849543
C        8.67927733      16.14063322       7.53440190      -0.08798409      -0.40384871      -0.34199516      -0.62303954      -0.16051468      -0.09467383
H        8.78115536      17.71142863       6.10716382      -0.03383799      -0.16187086      -0.24814957      -0.56899810       1.91647434      -0.62770057
H        7.92633082      16.59191424       8.19108590      -0.10568138       0.00398155      -0.16864712       0.32868454      -0.15728745      -0.40836847
H        8.59799954      14.23411267       8.58017311      -0.10025969      -0.00957125       0.01142641       0.11653451       0.47211027      -0.14435710
H       10.52631778      12.41022562       6.60567244      -0.16007317       0.14181284      -0.01767886       0.32275513      -0.39019153       0.90954244
C       21.26870945      21.29093036       1.58513342      -0.35692853       0.02903451      -0.62890443       0.08575108       0.28514433      -0.47948989
C       21.78201255      22.54266547       1.92618793      -0.23185322       0.55137880       0.18023126      -0.46321607       0.28956258       1.07252264
C       21.98841034      20.45455070       0.73758078      -0.40571888       0.23947141       0.21682268       1.15318477      -0.42020085      -0.44172662
O       20.06236998      20.92176302       2.12395836      -0.51040333       0.67459522       0.17790854       0.67576754       1.05602837       0.33962131
C       21.13054676      23.30869029       3.04034658      -0.26366889      -0.02891368      -0.25545546      -0.70505810      -1.09984291       2.11084986
C       22.98643190      23.00245160       1.40322768      -0.04846854       0.49198949       0.47600943      -0.52666354      -1.14832008      -0.33769003
H       21.34884547      22.83517488       4.08072499      -0.08105514      -0.09597517       0.20062178      -0.08578025       0.58581638      -1.78983164
H       20.02907310      23.33157573       3.05123127       0.26352105      -0.16995424       0.15687855       0.50974429       0.00536448      -0.53491640
H       21.46879457      24.31561098       3.11266825      -0.12895616      -0.09361487      -0.23753707       0.31363773       0.72458625      -0.13698608
C       23.68824814      22.19995053       0.53036688      -0.58129674       0.27822690       0.37612779      -3.16645098      -2.47334003       0.42466995
H       23.38613515      23.93895081       1.71665539       0.33440016      -0.01022239      -0.20669686       0.10431717       0.54352146       0.16071340
C       23.19665612      20.90216236       0.17746860      -0.10049389       0.10908119      -0.24838260       1.31300104       0.21855292       0.82987988
H       24.55243265      22.51944130       0.14347828       0.29655297      -0.07862801       0.10712167       3.23699951       1.04826760      -1.35131621
H       23.91923621      20.17456143      -0.32861174      -0.01811020      -0.24288791       0.08137599      -1.47688341       1.18546748       0.50520581
H       21.76171388      19.39668421       0.61704988       0.09775518      -0.04395671      -0.09813249      -0.46406469       0.50298512      -0.12448334
H       19.73762494      20.12995945       1.71363991       0.07234018       0.08708663       0.10803898      -0.25918335      -1.14674401      -0.31467590
C       -9.18841587      19.71323558      -1.66975112      -0.18325378       0.91169164       0.56539932       0.14617273       0.61611176       1.19921219
C       -8.50087558      20.92134676      -1.90268245       0.19323954       0.19966592      -0.42215203      -0.27415103       0.33451548      -0.67748964
C       -9.10642630      18.61385550      -2.48592889       0.44747622       1.33732725       0.69078711       0.22097754      -0.06049436      -0.79126328
O       -9.97981108      19.61817098      -0.54149670      -0.26670900       0.52664001      -0.96376819       0.70688534       0.82270235      -0.19570176
C       -8.63385245      22.12648087      -0.91099646       0.48145502      -0.14485530      -0.54955444      -1.60568666      -2.41268945       0.37106627
C       -7.84765497      20.97440495      -3.16871329       1.26212193      -0.90940384       0.86081759      -0.90898347      -1.05570817       1.97203398
H       -8.13579086      22.94664506      -1.29143306       0.22268564      -0.10607265      -0.14526462       1.31123114       1.47673738      -0.70552850
H       -8.22354400      21.86099069       0.09465291       0.41855165      -0.19719812       0.04011522      -0.47011322       0.20731561      -0.87916374
H       -9.71275343      22.47338916      -0.81240960      -0.01556382       0.16724619       0.07442384       1.21671808      -0.80030048       0.03779276
C       -7.85000894      19.85592426      -4.02551556       0.73714876      -0.13816601      -0.18260293       0.63677025       2.03447819       0.08616203
H       -7.31107227      21.86488410      -3.39849486       0.17495814      -0.27238746       0.14031785       0.30156103       0.38591009      -0.43100750
C       -8.44817140      18.67622528      -3.69651731       0.23862763      -0.10290456      -0.26902448       0.12576008       0.80043292       0.66809273
H       -7.34430575      20.03596441      -4.94193854      -0.13557548      -0.03202669       0.08987689       0.29792124      -0.35701805      -0.64688575
H       -8.42588813      17.84905353      -4.34327709       0.06945684      -0.15996146       0.10844606       0.00850438      -0.83394939      -0.66673267
H       -9.58646401      17.70537400      -2.25013955       0.28094460       0.06466611       0.12115157      -0.56096756      -0.67091537       0.54661047
H      -10.50964679      18.82925012      -0.63899108      -0.25690261      -0.29317445      -0.22768977      -0.67949629      -0.87282717       0.19838735
C        7.53343497      12.47616275      12.92281332      -0.36269317      -0.10802418       0.93449411      -0.59556687       0.70767272       0.63698059
C        8.64187844      11.65050106      12.88670019       0.57848402      -0.35391071       0.15886752       1.22621334      -2.48741674       0.39558387
C        7.63782091      13.77900619      12.46233298      -0.95290578       0.18383383       0.49733977       1.78640425      -1.07967687      -1.35284948
O        6.41682291      11.99341505      13.58499381      -0.33092695      -1.21932687       1.66687090      -0.74552560       0.82834530      -0.48709202
C        8.65860483      10.32268365      13.71796941       0.71724079       0.40199561       0.47572465       0.69127238       0.83871609      -2.38606095
C        9.77615746      12.00864320      12.15937950      -0.09645535      -0.24407479      -0.15364477       0.36428726      -0.31905246       1.05295229
H        8.43100177      10.56135628      14.70575323      -0.08061437       0.19900580      -0.27293834      -0.71196413       0.22301123       1.33698690
H        9.66860355       9.92166231      13.73211252      -0.18224615       0.14753281       0.03496566       0.11323509       0.05961442      -0.13696042
H        8.03791288       9.52850520      13.29415529      -0.23461580       0.11135068      -0.09021467      -0.18361762       0.41057128       0.20522672
C        9.81917659      13.24730825      11.51042501      -0.20717789      -0.04032587      -0.00215864       0.95286191      -1.45754504       0.83887118
H       10.70873206      11.38759121      12.29378848      -0.03001350      -0.17396394       0.01991581      -1.38712096       0.57215405      -0.60816938
C        8.82077901      14.12762867      11.71305058       0.95426514      -0.23117839       0.14646750      -2.33586311       1.33148623       0.33295199
H       10.71871089      13.53410950      11.02199397      -0.15386560       0.34088944       0.12395197       0.44798806       0.23836610      -0.51927263
H        8.96695227      15.10940049      11.25310733       0.01966573       0.06887068       0.23783255      -0.51822340      -0.19428280       0.37767893
H        6.78367952      14.36640793      12.61142318       0.37413571      -0.11334122      -0.00900409      -0.73821092       1.34714985      -0.05809161
H        5.58675152      12.54427003      13.46653044      -0.14585195      -0.19587330       0.12652606       1.62055421      -0.56138110       0.07378444
C        8.55206814       6.15419144       6.70153780       0.13482847      -0.67723318      -0.49296273       0.03389120       0.54394209       1.12162995
C        8.05184238       5.48025806       5.64133545       0.75253560       0.42189621      -0.61699545      -1.56805182      -1.40041757      -2.39434505
C        7.71148288       6.78495408       7.60733301      -0.57459415      -1.27240985      -0.69952747       0.10893433       0.66977787       0.82748079
O        9.89835442       6.16977001       6.84599429      -0.99736701       0.00209417       0.91783112       0.62379318       0.63106787      -0.43996334
C        8.99872810       4.80741433       4.60965088       0.73600839       0.07310179      -0.48746569      -0.84335947       1.16262293       1.46897578
C        6.66166924       5.52876376       5.50034762       0.40355863      -0.36908220      -0.15089376      -0.85084432      -0.22798133      -0.95627666
H        8.46812081       4.17874288       3.89203643      -0.02398288      -0.28704594      -0.02337183       0.23700927       0.15523010       0.42579150
H        9.78876088       4.33114800       5.19130960       0.07769304       0.06444931      -0.09768619      -0.14844894      -0.46935034      -0.46626776
H        9.44963234       5.65704936       4.11458812      -0.14217736      -0.00269574      -0.12815829       0.24024005      -0.08609214      -0.57821250
C        5.79474013       6.22946285       6.34086572      -0.83091124       0.94300545      -0.11299212       1.41661167      -1.06227791      -0.85097229
H        6.11640580       5.05293324       4.68329789      -0.01932790      -0.22600000       0.26107761       0.73719519      -0.13163289      -0.13695124
C        6.31869879       6.79726496       7.44055218      -0.00440246      -0.50318674       1.15430410       0.80596054       2.02923632       2.21753216
H        4.76833416       6.23347991       6.14437899       0.03095567      -0.17495231      -0.05857883      -1.24671876       0.10260805      -0.37970060
H        5.68803116       7.37523606       8.16418504      -0.07437678       0.05864759       0.00688979       0.67135412      -0.67089295      -0.70247900
H        8.20005589       7.33765909       8.42615861       0.00438738       0.03262751       0.10556441      -0.43690598      -0.38905174      -0.34113741
H       10.11050133       5.87615544       7.75053799       0.07122036       0.08655726       0.18334216       0.24582560       0.19587867       0.08594295
C       15.89482114      23.44375857       3.25062256       0.57489557      -0.93572618      -0.47161132       1.57590270      -0.51893163      -0.67876691
C       14.82361098      23.65764673       2.39189301      -0.34429526      -0.35258769       0.44345526      -1.59182775      -0.14965959       0.70793951
C       17.25233239      23.51696228       2.80167118      -0.08845062      -0.00723506       0.58964948      -0.64318383       0.02517226      -0.84774953
O       15.59369506      23.00226638       4.47412198      -0.36136571      -1.25135579       0.72307570      -0.22977450       0.15247233       1.32356691
C       13.36239060      23.37631079       2.82903391       0.42957111       0.64107425       0.33162585       0.36662894       2.37520528       0.46802473
C       15.08117903      24.01832079       1.09432595       0.11478935      -0.51612008       0.15263555       0.15437458      -0.85126567       1.27623856
H       12.72700492      23.06378292       1.99710573       0.09464978       0.17818778       0.06178133       0.28658006       0.36735561       0.15658411
H       12.88960741      24.26850791       3.40725563       0.04398308      -0.36677219       0.22421270       0.69992292      -1.34764409      -1.31055522
H       13.36754107      22.61462993       3.55439267      -0.05153683       0.18356632      -0.51480351      -0.00337018      -1.14689350       0.77031314
C       16.35956241      23.95054744       0.64216396       0.96794733      -0.16953625      -0.31409467       1.07815957       0.91383141      -2.19913650
H       14.23464413      24.20129336       0.50860739      -0.03454728      -0.09058244       0.54551686      -0.72405052       0.38123810      -1.19321442
C       17.47790613      23.73336286       1.42000060      -0.07418658      -0.04239573       0.03694896      -0.69079429       0.12835549       1.58964801
H       16.52341773      24.14799070      -0.40834864       0.01370262       0.11239187       0.17162520       0.04887636       0.05367787      -0.13714117
H       18.44514315      23.81919959       0.93652405       0.20941050      -0.05059398       0.10034131       0.01275383      -0.25238851       0.46067488
H       18.07446516      23.32860874       3.49257807      -0.19451393      -0.26289437       0.11387836      -0.43382266       0.10882902      -0.13935019
H       16.33744998      23.07683048       5.10788872       0.14394083       0.03417349       0.09566939      -0.18936542      -0.23282340      -0.31463370
C       11.09257648       3.86410227       8.24561653      -0.50291858      -0.07942478      -1.70537793      -1.24878931      -1.32392621       0.01297806
C       12.46356586       3.87516318       7.94434792      -0.39787309       0.25040370      -1.16187879      -0.59032202       0.18082681       0.57176775
C       10.23885896       2.76349912       7.85828878       0.15462663       0.49854035      -0.65665970      -0.09502110       1.99369657       0.23310637
O       10.55933784       4.99001548       8.92475006      -0.67424885       0.05236194       0.61577189       0.72309399      -1.33242822       0.01052575
C       13.23129983       5.14582830       8.35765110       0.42635929       0.13831846       0.38411154      -1.11382651      -0.09521875      -2.26584482
C       12.96126624       2.74314572       7.27847245       0.33265482      -0.05594447       0.70021138      -0.31591311      -0.88439190      -0.43897712
H       12.68638216       6.00702778       7.88692804       0.13756191       0.18399600       0.05420186       0.40000728      -0.89719450       0.56180489
H       14.18217790       5.18993580       7.83598684      -0.05656402       0.12316746       0.05783184       0.38412318      -0.22607528       0.69665325
H       13.21687955       5.30766204       9.42292219      -0.05787063      -0.00796749      -0.02165438       0.42598665      -0.07070131       0.21884042
C       12.11008170       1.65476612       6.86317059      -0.13309785       0.20401606      -0.67648699       1.07409167       1.99309349       0.58797175
H       14.03523131       2.69539063       7.04455935       0.29990398      -0.31504815       0.09068186      -0.60703534       0.04290418       0.09681091
C       10.75328073       1.70503256       7.13441774      -0.81062760      -0.60440114      -0.40147489      -0.20627961      -1.69243205      -0.77348590
H       12.48456668       0.84879480       6.25797808       0.06109630       0.14119334       0.03265443       0.36415637      -0.06983338       0.06021924