1344
Lattice="24.06111175093277 0.0 0.0 0.0 24.06111175093277 0.0 0.0 0.0 24.06111175093277" Properties=species:S:1:pos:R:3:momenta:R:3:forces:R:3 mol_liquid.pdb=T energy=-610253.6875 free_energy=-610253.6875 stress="0.004307889845222235 0.0005374024040065706 -0.0006088441587053239 0.0005374024040065706 0.0014236837159842253 8.129506022669375e-05 -0.0006088441587053239 8.129506022669375e-05 0.005483463406562805" pbc="T T T"
C      -10.35298518      11.42574842      -4.54057729       0.44266818       0.13339122       0.02029439       0.33050638      -0.72052991       0.76428777
C       -9.16492678      12.21094006      -3.92380855       0.37311947       0.24281026       0.65146892      -1.23889029       0.02747216      -1.41337609
C      -10.64797238      10.09956181      -4.07387384       0.96917520       0.36288339      -0.75545882      -0.85845405       1.10033107      -1.46643758
C      -11.10200250      11.96433574      -5.56602374       0.13345434      -0.69002349       1.49095577      -2.98379993       0.15129974      -1.32481003
C       -9.32603534      13.70389150      -4.21865347       0.43404514       0.17330934      -0.53023299       0.51591462       1.55902934       0.10121866
C       -7.90948755      11.67631510      -4.53465916      -1.18985800       0.12491867       0.35552501       1.85727477      -0.41850388      -1.42609978
H       -9.09884053      11.98107099      -2.87979021      -0.10610596       0.02102613       0.01297230      -0.33945620       0.22366168       0.78159446
H      -10.15015833      14.19518263      -3.70245884       0.12403869      -0.04203755      -0.14893582      -0.36420476      -0.44247785      -0.07390227
H       -9.38380755      14.02023812      -5.28103791       0.04560727      -0.03894185       0.00056004      -0.21393195      -0.89317995       0.39809632
H       -8.50201137      14.36041158      -3.91531052      -0.12958411      -0.15401097      -0.26297437       0.35697609      -0.71779877       0.41729245
H       -7.00693227      12.13239726      -4.05885041      -0.01920747       0.15409930      -0.03876622      -0.68735921      -0.65886420      -0.16521960
H       -7.82300784      12.00509679      -5.59650376       0.13189509       0.26789098      -0.15649743      -0.23786177      -0.24727133       0.69793761
H       -7.86188455      10.54434664      -4.55343315      -0.05283779       0.04823434      -0.00472998       0.06765923       1.41478777       0.31099290
C      -11.72252821       9.35819205      -4.61809804       0.19477071       0.68058592      -0.33431030       0.10789493      -0.26641625       0.26876134
H      -10.02592147       9.73623791      -3.28458447       0.01880815       0.06189841       0.05512904       0.09937767      -0.38290715       0.32644343
C      -12.50905097       9.87541183      -5.65853609       0.19243024      -0.08286339      -0.04789678       0.46927506       2.47468662      -0.47536641
H      -12.01755410       8.35766945      -4.22869375       0.05390687      -0.03115502      -0.05289787       0.67934316       1.01119673      -0.15545443
C      -12.19642993      11.20222376      -6.13362992       0.29701350      -0.03306489       0.31702509       1.37500477      -1.57117069       2.01085067
H      -13.41811686       9.39894079      -6.06489094      -0.36385390      -0.09935437      -0.03239819       0.85294282      -0.00906649       0.34661809
H      -12.80918871      11.62599381      -6.88916248      -0.04506832      -0.15908317       0.07481937      -0.34455884       0.39869118      -0.48332363
H      -11.11836783      13.05241112      -5.90158520       0.08990508       0.22740958      -0.14312488       0.69899482      -1.80577779       0.61966431
C       13.56138141       1.97242874       2.48036010      -0.34798824       0.50381079       0.31665038      -0.76812255      -1.65313697      -0.92570329
C       14.92019604       2.53466609       2.74128429       0.32241741       0.09961092       0.91961049       0.45267424       0.63881755       0.58050686
C       13.44010822       0.59824856       2.09990999      -0.41422278      -0.22075592      -0.83589541       0.38265708       0.80712306       1.17709839
C       12.39072551       2.72627908       2.50954551      -0.31028314      -0.06479242      -1.08320475       0.08160096      -1.03238332       0.25968286
C       15.45061206       2.20396378       4.15261016       1.55256314       0.34066345       0.07193169       0.62642306      -1.49800444      -0.91858333
C       14.96692363       4.02749284       2.48542880      -0.83143439      -0.64093097       0.52249081      -1.89437962       1.11459577       0.73637557
H       15.63224477       1.95978421       2.16410246       0.06235730      -0.04439493       0.10220500       0.09595157       0.33333686      -0.88996035
H       15.61243352       1.11863822       4.05930184       0.15374671      -0.13463922       0.23769456      -0.24378473       0.11100109       0.70568699
H       14.78251621       2.38104960       4.97400690      -0.05413642       0.08351965      -0.09039069      -0.18957803       0.39798105       0.33367425
H       16.48049090       2.56524515       4.29027574       0.01291340      -0.04046796      -0.01913281      -0.61499411       0.47287810       0.14621502
H       14.75226433       4.35635150       1.44589560       0.15385110       0.07554852      -0.01857488       0.20833120      -0.51693451       0.77889973
H       15.89376138       4.46006712       2.82564683      -0.37781252       0.19604997       0.10709383       0.33276916       0.12827002      -0.07686785
H       14.11868854       4.48940809       3.15751085      -0.18020877       0.08756110       0.18589428       1.81133604      -0.53381634      -1.19620633
C       12.17864827       0.05679608       1.87985270      -0.44930079      -1.73969677       0.09949691       0.79328376       0.41690859       0.22355062
H       14.35941586      -0.04597436       2.14905296      -0.21902205      -0.48902495       0.18843979      -1.07477760       0.64146143      -0.43789402
C       11.01747817       0.82192212       2.06576309       0.49994776      -0.63640679       0.13136885      -1.04001355      -0.89348590      -0.07857129
H       12.20868425      -0.97154762       1.58903195      -0.00380896      -0.03934276      -0.14064758      -0.67964661      -0.46045759      -0.05909202
C       11.11113790       2.15395200       2.40140625       0.28314059      -0.67957961       0.89534198       0.26306772       1.12661791      -0.25651389
H       10.00742177       0.36358478       1.98396453      -0.04246396      -0.28641303      -0.21767098       0.95132077       0.24209902      -0.06757987
H       10.22482535       2.82694992       2.51766825       0.06508055       0.03501779      -0.01628879       0.84380823      -0.93442035      -0.17378971
H       12.51409916       3.76396669       2.63006859      -0.02374897      -0.05043682       0.08847141      -0.34354261       1.00464022       0.30584568
C       11.83905241       4.84626937       8.70942235      -0.29356690       0.18371364       0.47258446      -0.82149613       1.08451200       1.65356064
C       11.87999997       3.38564650       8.53678456      -0.81428384      -0.74570184       0.42893191      -0.04467253      -0.61810434      -1.44193649
C       10.98916460       5.67822688       8.01732732      -0.17700181       0.04411446       0.01523102       0.58467788       0.05919901       0.23414131
C       12.44661581       5.37718524       9.86814862       0.32083018      -1.04325203      -1.01485229       1.50149214      -2.43077135      -0.43576360
C       11.99889174       3.03634154       7.05001173      -0.13898763       0.17028837      -0.09517949       2.13770103      -0.00849917      -0.35448456
C       10.65298435       2.68408607       9.14689730       0.26158394       0.29749786      -0.40524314       0.36931506      -1.22914267      -2.34171915
H       12.81047504       3.04227425       8.99605915       0.06332288      -0.14087906      -0.14159630      -0.29559809      -0.24472646       0.21329862
H       12.74441700       3.78285118       6.61553032       0.22408298      -0.20960767      -0.38636834      -1.10990143      -1.00462043       0.10927251
H       11.07314964       3.00940925       6.47994840       0.24047274      -0.00816284       0.20711816       0.09938297       0.19950444       0.16181283
H       12.48651626       2.04157659       6.98171355       0.14343447      -0.13534133       0.12851702      -0.51216590       0.49943447      -0.17850253
H       10.81695369       1.59190176       8.93100722       0.17998424      -0.26236175       0.05382569      -0.34099701       0.91944289       0.65151280
H        9.70257014       2.94235024       8.61395813       0.26153235      -0.13197847      -0.30057544       0.93532461       0.07963048       0.62195200
H       10.60825055       2.89938686      10.17118823      -0.01865337      -0.19547398       0.20298108      -0.36154911      -0.02324431       1.45172882
C       10.76451520       6.98146374       8.45990743       0.05977373       0.43227864      -0.55209858      -1.33999228      -0.57067370      -1.26153374
H       10.52645670       5.33593557       7.13113444      -0.16070280       0.13478409       0.17953488      -0.51376534      -0.32665747      -0.70867378
C       11.29638292       7.38341812       9.62544691      -0.72912062       0.06161143      -0.55022186       1.71213889       0.44590187       1.74350154
H       10.03474574       7.59330306       7.91416183       0.04144191      -0.22895388      -0.23990782       0.56539840      -0.06135932       0.30494085
C       12.20872968       6.58411924      10.37084544      -0.17126866      -0.44144958      -0.02971000      -1.43669367       2.07534361      -1.02149892
H       11.16307807       8.37138100       9.95140501      -0.05190689       0.09709447       0.03613190      -0.56411511       1.20302153       0.45829421
H       12.71077611       6.92818886      11.25378910      -0.37432801      -0.14141263      -0.07168037      -0.02504363       0.23895876       0.16403459
H       13.22335692       4.78979697      10.34938286       0.18918821      -0.15749853       0.20589112      -0.31073037      -0.30745679       0.03424829
C       21.71401950      33.20462215      -4.25329106      -1.03009838      -0.25809680       0.49109000      -0.29478031       0.19252805       0.06610820
C       21.50233966      31.80866112      -4.81611043      -0.70418347      -0.39542829       0.42723863       2.72771192      -0.95477390       1.86156130
C       21.09870311      33.54155928      -3.04434909      -0.02890434      -0.18963917       0.72648477       0.11241947       2.14333534      -0.37970373
C       22.47565763      34.19938289      -4.88366280      -0.97011989      -0.02199413       0.23589563      -0.09396064      -0.29413480       0.40161264
C       20.16369408      31.23852104      -4.54443580      -0.70855017       0.38999703       1.12019154      -1.89912200       1.86093593       0.70025736
C       22.48791991      30.80367168      -3.99546489      -0.44801477      -0.07585938       0.46381116       0.53638279       1.31869841      -1.48380518
H       21.87830875      31.72151208      -5.82481989      -0.06967307      -0.13391086       0.14076893      -0.61035860       0.24067853      -0.34505850
H       19.35138962      31.79126236      -5.03322361       0.10324523      -0.12196302      -0.11508472       0.14867796      -0.02103749      -0.08660717
H       19.88067270      31.23544688      -3.46057280      -0.12740957       0.04892467       0.24682539       0.53927749      -0.19513731      -0.89911640
H       20.14461255      30.27211847      -4.90517192       0.11792223      -0.25087406      -0.03780902      -0.24945077      -2.16503096      -0.64969015
H       22.47894384      29.75246644      -4.30936734      -0.12435523       0.11510457      -0.23365573      -0.39644277       0.50342566      -0.15433744
H       22.22673049      30.89243847      -2.97504460       0.01313757       0.18125211      -0.01471674      -0.36720127      -0.16396503       1.17585492
H       23.53585895      31.13956940      -4.05886594       0.04191896       0.27596403      -0.00964995      -0.42886531      -0.02428919      -0.21306409
C       21.19264376      34.88025764      -2.57883608      -0.03675716      -0.14121697      -0.64647468      -0.30859402      -1.13323832       0.04763257
H       20.37317150      32.90898698      -2.58029849       0.24766620      -0.01911122      -0.21067300       0.08606543      -0.38424498       0.37552944
C       22.01513810      35.80747887      -3.21055813       0.07164574       0.52307717       0.06327866       0.21220921       1.54389727       1.18374085
H       20.57670952      35.15218797      -1.70696791       0.08961368       0.31928244      -0.08317071       0.57233131       0.00987835      -0.46982569
C       22.75119163      35.45098888      -4.32648127       0.93982537       0.00672297       0.16319444      -1.31818414      -1.73263836       0.08861868
H       22.05029658      36.84431982      -2.78648713      -0.21748598      -0.25967190      -0.12345825       0.23095755      -1.20329571      -0.50668132
H       23.47654946      36.00482667      -4.85575088       0.05728669      -0.04513761       0.23928999       0.24352998       1.16156197      -0.15634714
H       22.80046238      34.06646015      -5.88732837       0.25675384      -0.05594158      -0.08895476       0.56694257      -0.58559507      -0.55344969
C        3.50102439       7.44895190      30.42556162       0.76470462       0.75166277      -0.89000750      -0.99533206       0.35304365       1.64688158
C        3.60770791       6.75309669      31.77618012       0.24835994       0.18775394      -0.51636987      -0.73883486       0.85663813       0.48313993
C        2.32435074       7.32555547      29.69082059      -0.96293107       0.73104039       0.19079994       2.84650946       1.97955787      -1.86449945
C        4.47604952       8.39938937      30.08289088      -0.06269845      -0.38172814       0.32212687       0.75115687      -0.55969644      -0.35931781
C        3.39730113       7.70236890      32.96851227       0.43002249       0.26827922      -0.60937859      -0.65571266       0.37394464       0.57878006
C        4.91312441       6.03736650      31.92521228       0.55864151      -0.75990632      -0.45897009       1.99264097      -0.07923689      -1.05335021
H        2.73770009       6.08830122      31.91748287      -0.14711982       0.13269927       0.04054205       0.63344687      -0.35707462      -0.65305161
H        3.48350087       7.13077570      33.93213909      -0.19491871       0.01335242      -0.24321145       0.12680839       0.57641196      -0.87928128
H        2.35111549       8.11985666      32.97222016       0.02989619       0.10786899       0.09072904       1.18648660      -0.24982022      -0.12850288
H        4.12340693       8.53109526      32.95327101      -0.21703201       0.05375420       0.03450270      -0.34242737      -0.30507520       0.16166149
H        5.86436956       6.62322147      32.10835722      -0.15762801      -0.26155086      -0.06919390      -1.41774797       0.14473732      -0.19505113
H        5.17713518       5.47233081      31.01661593       0.06350898       0.12413776       0.17333311      -0.32153901      -0.11253191       0.35538667
H        4.88257861       5.38939671      32.75408249       0.05068279       0.04654925       0.09100896      -0.10288107      -1.08441019       0.94865561
C        2.28109272       8.00045335      28.43808336      -0.78478837      -0.36539915      -0.57787782      -2.53937578      -1.00554037      -0.06477660
H        1.51332958       6.77202387      30.01476358      -0.25175195      -0.15766202       0.21546346      -1.31827176      -1.14321482       0.56216931
C        3.31269094       8.75446586      27.95578762      -0.96030421      -0.26499368      -0.51475271       0.56718999       0.97851706       1.55143726
H        1.30671685       7.90350959      27.88473176       0.19178308       0.07033916      -0.00740334       1.23217559       0.07804145       0.35800546
C        4.37572053       9.02166426      28.87550584      -0.13221449      -0.03114366       0.38295296      -0.06237165       0.46106917      -3.33901691
H        3.29318350       9.32089958      27.01754485       0.01429101       0.04781577      -0.10000034      -0.14164360      -0.56554914       0.37481111
H        5.11916847       9.64991951      28.34161954      -0.21878706       0.05440680       0.10825530       0.00641732      -0.27144855       1.39627814
H        5.40272001       8.54934215      30.65123942      -0.09560112       0.52995324       0.15215210      -0.71234250      -0.14902838       0.09514819
C        0.92778771      24.92748153       6.73577290      -0.13864564       0.13596160       0.24058889       1.18692350       0.19917527       0.08221033
C       -0.13422079      24.01222816       7.18722859       0.51400323       0.13417003      -0.12253763      -1.08334696      -1.94049263      -0.64966667
C        1.47653389      25.78334356       7.70972579      -0.21327719       0.29543942      -0.05134838       0.14102335       0.85723394       0.19919641
C        1.50458620      24.79622954       5.44876125      -0.15284712       0.64652084       0.31514548       0.39981061       0.70621264       0.93183869
C        0.45393747      22.56817723       7.41093074      -0.18293152       0.34763054       0.63093169       1.63082600       1.30050421      -0.97177160
C       -1.38904732      23.88251126       6.25539414       0.01876719      -0.62818658       0.61274113      -0.37252071       0.55559981       0.14897136
H       -0.52647651      24.38468865       8.12575426      -0.05664108       0.17117809      -0.03494124       0.09488654      -0.09915631       0.17887023
H        1.34981757      22.54698400       8.05410680       0.19167565       0.10017891       0.06020168      -0.47319633       0.25822639      -0.09410792
H        0.75155567      22.06430643       6.48139205      -0.18093117      -0.03296523      -0.20099219       0.07090321       0.65223950      -0.15289749
H       -0.24610731      21.90428827       7.77621247       0.06395356       0.06707556       0.03911076      -1.74013889      -1.09968686       1.26176858
H       -1.29548272      23.16390957       5.40925851       0.04653781       0.26831535       0.07668385       0.20320842       0.55001807       0.67247498
H       -1.71690159      24.87880921       5.83240500       0.15878814       0.12889191       0.06396343       0.43390119      -0.99959755       0.48506299
H       -2.19912282      23.53054957       6.92943405       0.01293165      -0.00130511       0.07031240       0.31637144       0.11434860      -0.68942893
C        2.57159810      26.62332719       7.34117252      -0.16288502      -0.79755867      -0.19501194      -1.20623744      -2.29001188      -1.18806779
H        0.97838537      25.80089388       8.74042924       0.22678701       0.05155951      -0.10700759       0.95437813       0.11702292      -1.70257139
C        3.15453613      26.42220974       6.09469321       0.49140588       0.39353721      -0.57450498       0.91089189       2.92797470      -0.91470301
H        3.01609433      27.40134305       7.87102839      -0.23314424      -0.00219180       0.26114761       0.22189438       0.94458979       1.49992108
C        2.62648554      25.56661439       5.14087827       0.22781909       0.27593758      -0.36663673       0.30818304      -1.10568833      -0.56297284
H        3.90639894      27.26019324       5.75220596      -0.40228067      -0.01149402      -0.04585016      -1.13880348      -2.12787247       0.72927600
H        3.17122742      25.41168699       4.18466770       0.16864784      -0.02966885       0.26421027      -0.66098034       0.31503382       0.65450919
H        1.09688921      24.08938060       4.74362877      -0.00075618       0.07579281      -0.29014787      -0.06136152       0.01777009       0.00484272
C       -7.40733611       4.63222762      17.38320476      -0.47737115       0.06493330       0.67251322       1.52197003      -0.02288640       0.59710234
C       -7.60543510       5.90753533      18.15044160       0.17136272      -0.32025347       0.44067111      -0.70571858      -1.16747570       1.08586097
C       -6.12743325       4.07191694      17.34929835       0.33552807       0.01850632       0.24078770       0.02071977      -0.36291364      -0.01864003
C       -8.40324662       4.02646766      16.67045648       1.11308030       0.03230211       1.08747888       0.00562662      -0.08875644      -0.68111473
C       -8.96574567       5.94222721      18.83576649       0.40600810      -0.46548699       0.63517359      -1.03549790       0.82378435      -2.22560120
C       -7.24992632       7.06190278      17.28232684       0.79388717      -0.22183152       0.53632147       0.71675706       0.42190760      -0.75306201
H       -6.90027455       5.98371158      18.98815056      -0.05230351      -0.18305472      -0.03985411       0.19646323      -0.48520875      -0.26384869
H       -8.99021783       6.80372241      19.44084546      -0.33140812      -0.20542053      -0.08065892      -0.28668058       1.32552934       0.62119341
H       -9.20541108       5.14811107      19.49500987      -0.30775492       0.06297755      -0.15607054       0.23438644      -1.06291664       0.30394268
H       -9.79379005       6.02782074      18.06744054       0.32321454       0.15022767      -0.07820622       0.78165466      -0.03972974       0.97063279
H       -7.75360764       7.15139497      16.30954386       0.02013587       0.16085491      -0.24895815      -0.09134505      -0.14601356       0.52519619
H       -6.19058749       6.89410616      17.07477079       0.25192261      -0.00824748       0.31875515       0.00002062       0.43803877      -0.26047164
H       -7.33325364       7.96605729      17.85364048       0.09755400      -0.08508861       0.36370534      -0.12051742       0.70318651       0.00288151
C       -5.84826060       2.89467891      16.65539512       0.02880463      -0.36815193       1.20348733      -0.15911986      -0.09404542       0.87739474
H       -5.34276340       4.56138668      17.90783566      -0.05793670      -0.02072111       0.23581013       0.08858527      -0.02101402       0.05836895
C       -6.88686133       2.26222661      15.96180078       0.56908103      -0.27591931       0.30123637       0.47208363       0.23551039       0.19820684
H       -4.86216684       2.43457008      16.82773590      -0.04609233      -0.11459589       0.12349574      -0.56217700       0.22252777      -0.59108216
C       -8.14208166       2.86330704      15.96030752      -0.11462455       0.78250340       0.54669009      -0.53020763      -0.63306534      -0.95666891
H       -6.67551851       1.34051038      15.42503495      -0.27034249       0.19656358       0.10188028      -0.27875638       0.23713925       0.05838821
H       -8.93982443       2.44306225      15.32896167      -0.14319345       0.23758398       0.07071571       0.52036309       0.12064759       0.44118139
H       -9.32744370       4.55711296      16.56370727       0.27285631      -0.10723642       0.09902630      -0.58375466      -0.24150795       0.06161144
C        1.41956069      10.78888863       9.52408061       0.72969902       0.30945956      -0.61689896      -0.51578414      -0.77881265       2.45866275
C        0.78049148      11.10773361       8.23128791       0.24362083      -0.05159657       0.69226522      -0.15281647       0.69271171      -1.36280549
C        0.76424203      10.23905271      10.65709209       0.69821516      -0.32874892      -0.64840819      -0.18806849      -0.20406030      -1.21953630
C        2.75870786      11.10830862       9.69649185       0.74223676       0.99649477      -0.11941466      -1.01420736      -0.06133313      -0.50281632
C       -0.66064187      10.65411754       8.05428368       0.38443178       0.63351052       0.38066140       0.58466482      -0.49230766       1.03276157
C        1.61116274      10.55679113       7.07431367      -0.16013307      -0.26407120       0.48866861      -1.74440169       1.33441818      -1.80322623
H        0.82436079      12.22140456       8.13678512       0.13505579      -0.22777454      -0.07832939      -0.19743836      -0.74470174       0.06348517
H       -1.29453922      11.19965350       8.70476672       0.07324659       0.13381747      -0.07769228      -0.75771666       0.71763086       0.43706167
H       -0.76741262       9.62731734       8.38852381      -0.04708859      -0.14880072      -0.37826938       0.07576523      -0.37202668      -0.22953364
H       -1.02029232      10.73139849       7.05335082       0.01913657      -0.22163145      -0.13256792      -0.10030140       0.17819315      -0.66322458
H        1.60011988       9.48583665       7.00752163      -0.14506750       0.19359464       0.16485055       0.33487150      -0.36673176       0.13829595
H        2.56383854      11.01295115       6.99829062      -0.30304122       0.00717304      -0.28239981       1.20458984      -0.20997827       0.26282930
H        1.13772119      10.95019315       6.12061321       0.04901092      -0.08241434       0.13665682       0.27366358      -0.64452338       0.93408298
C        1.42144593       9.95617696      11.86060980       0.42927408       0.38370611      -0.48215008      -0.52662039       0.09218948      -0.56465244
H       -0.29973321       9.94162854      10.58793634      -0.03051054       0.17012010       0.11324566       0.83265781       0.32572609       0.01182957
C        2.77468803      10.31231664      12.00792790      -0.27676328      -0.58240416      -0.44557934      -1.16352916       0.65972555      -1.75995779
H        0.70281331       9.45384015      12.54334976      -0.21381635       0.11949041      -0.14789175       1.41080344       0.44254333       0.22189751
C        3.40591230      10.90936240      10.87765643      -0.61112313      -0.68566404      -1.17174516       1.14272451       0.18007746       1.77530384
H        3.28001539      10.24212311      12.93219938      -0.01872542       0.08414227      -0.16474394       0.41728297      -0.18782374       0.63458192
H        4.43709761      11.32348317      10.95797046      -0.33901645      -0.02465190       0.25816278      -0.84653795      -0.69840294       0.12159516
H        3.19470295      11.54732292       8.82902696      -0.11090612      -0.10495763       0.09945826       0.86671591       0.35106903      -0.07256950
C       28.89399329      23.82269053     -13.50935091       0.27881338      -0.10783503      -0.11547187       0.19025125      -0.40187430      -1.32548261
C       29.26928999      25.13563835     -12.87556803       0.29670066       0.09305014       0.49067314       0.70285910       0.17521238      -0.88206863
C       28.68312284      23.80193884     -14.89590365       0.59695640      -0.21920951       0.94433342       0.73997867       2.39305854       0.33195746
C       28.93225108      22.57650673     -12.89522185       0.31962884      -0.22072809       1.09890840      -0.57463527      -0.18202569       1.68542695
C       30.74347404      25.50396278     -13.28648946      -0.67655138      -0.41601731       0.18370773      -0.80092561       0.64002520       0.83129370
C       29.13563149      25.16320820     -11.38743101       0.36728089       0.04596755      -0.34501653       2.26033545       0.04713267       0.53004897
H       28.68181790      25.94723848     -13.30876166      -0.02272927      -0.09939329       0.03154966      -0.33947796      -0.24039376      -0.03553807
H       31.43024700      24.76951522     -12.88063902       0.24507924       0.37969552      -0.11657868       0.15601471      -0.23135906      -0.16356224
H       30.97515350      26.46837457     -12.77073212      -0.22676755       0.07807289      -0.21615881      -0.01282370      -0.58710694      -0.75456941
H       30.84773536      25.57946849     -14.37754110       0.19802370      -0.07753098      -0.11450346       0.08767241       0.05238185       0.64389956
H       29.54359512      26.13092099     -11.07286134       0.09004570       0.36147285      -0.31802246      -0.38006270      -0.09198429       0.26704985
H       29.86592996      24.41613533     -10.97583919      -0.00865533      -0.16642813       0.14243546      -0.95613700       0.45986080       0.00988583
H       28.14009769      25.04823612     -11.02027399       0.20405614      -0.20831576       0.04769885      -0.28736591      -0.30684271       0.34870070
C       28.61556431      22.67166396     -15.63722906      -1.37069130      -0.12690895      -0.41067196      -0.68737841      -0.09872709      -1.64807558
H       28.71370650      24.76088751     -15.43526863      -0.24026175       0.06443932       0.04727797      -0.24900615      -0.42061248       0.35218510
C       28.58194987      21.47459849     -15.01362953      -0.36688195      -0.22136892       0.84008193      -0.12479110      -0.96463799       3.17050576
H       28.47273498      22.72626424     -16.71014904       0.12126329       0.12386699       0.09299538       0.12429050       0.10091994       0.01326114
C       28.66558214      21.40784304     -13.60368542      -0.20578061      -0.19731151      -0.12586800       0.44511628      -0.33616081      -1.03162003
H       28.41576510      20.52736808     -15.41504031      -0.02175509       0.16036419      -0.15327154      -0.14064850      -1.06209421      -1.46996534
H       28.57798051      20.38284227     -13.17858332       0.41151016      -0.07277882       0.08338690       0.18986094       1.21621370       0.10063812
H       29.06721098      22.53764681     -11.79854708      -0.23587660      -0.03024162       0.23006837      -0.04461805      -0.12291104      -0.72945857