960
Lattice="22.917198762379094 0.0 0.0 0.0 22.917198762379094 0.0 0.0 0.0 22.917198762379094" Properties=species:S:1:pos:R:3:momenta:R:3:forces:R:3 mol_liquid.pdb=T energy=-969671.9375 free_energy=-969671.9375 stress="0.0036823267582803965 -0.0005581568693742156 -0.0003556742740329355 -0.0005581568693742156 0.0024225017987191677 -3.936892971978523e-05 -0.0003556742740329355 -3.936892971978523e-05 0.0028760554268956184" pbc="T T T"
C       -4.75091222       4.84596333      -3.89770443       0.37468737       0.03061072       0.13159337       0.94313931      -0.47133061       0.18235165
C       -3.23812939       5.13968219      -3.72077849       0.97405847      -0.04757880      -0.52281147      -0.52215612       0.95902169      -0.70434499
C       -5.55931424       6.01312250      -4.49809891       0.76244889       0.49088968       0.66794635       0.80693609      -0.58641124       0.98165506
H       -5.06388281       4.48446402      -2.90874185      -0.02782088       0.06348004       0.06053109      -0.38633642       0.42808029      -0.23947452
H       -4.81757288       3.97914258      -4.54071719      -0.10708011      -0.45119803       0.09919823      -0.24938503      -0.29225802      -0.32433659
C       -2.40701065       3.97613863      -3.23125240       0.71218456       0.42210867      -0.32506262      -1.14996958       1.04634798       1.29731178
H       -3.20986086       5.99681092      -3.06416561       0.19923221      -0.31145314      -0.10299574       0.38231266       0.13776769       0.70643437
H       -2.75908697       5.55144775      -4.61832198       0.28830486      -0.17056697       0.01598399      -0.31816909      -0.32584772      -0.32794741
S       -2.80258700       3.55524810      -1.51416071      -1.51860601      -1.01464311      -0.69532887       0.24101174       0.69116497       0.79067445
H       -1.37150884       4.18401564      -3.19080363       0.04129272      -0.04942026      -0.23594974       1.01554275       0.11070061      -0.62230146
H       -2.64825338       3.11148203      -3.76854373       0.12293244       0.12338697      -0.32274347       0.04444462      -1.26664376      -0.98752999
H       -2.12005986       4.64456239      -1.02997971      -0.00181654      -0.09659332       0.00559669      -0.57364661      -0.75923783       0.02370819
H       -6.64220311       5.83711874      -4.40780035       0.13893579       0.32810499       0.11229785       0.47399241       0.12525956      -0.48605365
H       -5.16421849       6.13930816      -5.50597652       0.06976177      -0.16779654       0.17569162      -0.64766788       0.13975179      -0.14444336
H       -5.30736096       6.91431644      -3.93759626      -0.31192245      -0.03613045      -0.12560720      -0.19435757       0.14242005      -0.04129720
C       21.76851186      -9.81160608     -16.95416999      -0.05993690      -0.34138432      -1.10492827       0.71045560       0.96542376       0.61930740
C       23.04249386     -10.11876498     -16.10872164       0.35625406      -0.36859479      -0.81309008      -0.94053000      -1.56705093       0.72676563
C       21.43817930     -10.94703223     -17.87092300      -0.45155750       1.08054834      -0.99963157       0.38485789      -0.93638575       0.92114234
H       21.85656372      -8.85352675     -17.47405420      -0.03145847      -0.12624044       0.10681378       0.47367457      -0.09550191      -0.09693807
H       20.92575925      -9.62485298     -16.30507900       0.23685956      -0.04872112       0.26277525      -0.12947637      -0.28045750       0.22081605
C       23.19587226     -11.70397090     -15.77475055       1.21116518      -0.40203513      -1.11327630      -1.50374103       1.58230352      -1.01178110
H       23.10807515      -9.57760945     -15.12269440       0.05268517      -0.06598358      -0.10537141      -0.33244076      -0.47341496      -1.01497316
H       23.90528916      -9.83161972     -16.65510131       0.26198249      -0.14406663      -0.17421271       0.85606784       0.17750317      -0.61104333
S       21.97482740     -12.01940102     -14.50065870       0.71823954      -1.17847035       0.74669957      -0.29105887      -0.58181083       0.72876441
H       24.15561705     -11.78823950     -15.37149352      -0.15223333      -0.07639889       0.04689343       1.46632349      -0.53395933       0.49113286
H       22.97741941     -12.43024536     -16.59471407      -0.03586491       0.05577365      -0.03176957       0.63957906       1.13311172       0.58357441
H       22.20134186     -13.33745860     -14.26886153      -0.11392258       0.03868962      -0.11655589      -0.00154857       0.43211365      -0.20593232
H       22.29811685     -11.31303698     -18.46101793       0.23677031       0.27403622       0.26487163      -0.53616935       0.25361139       0.21694191
H       20.59930173     -10.74041115     -18.48022439       0.01741716      -0.01138547      -0.03291271      -0.67028356       0.31477207      -0.87089181
H       21.10463821     -11.71969470     -17.16242147      -0.00616630       0.24314760      -0.16539180       0.17676035      -0.29974699      -0.75081605
C       -4.72025274      -4.25814799      18.39299342       0.49564649       0.31774258      -1.45545602       2.22034931      -0.90965855       1.65776014
C       -4.98886155      -4.01878055      19.91460795       0.22831062      -0.26771303       0.18599018       0.92507303       1.36871397      -1.14986968
C       -5.66552242      -5.25050826      17.79870109       1.02162683      -0.35783253      -0.45079923       0.21605180      -2.94908953      -0.15117231
H       -3.62758554      -4.60447847      18.33376028      -0.09257079      -0.17217634       0.15390479      -1.50582290       0.11287852      -0.03192988
H       -4.69405283      -3.33562777      17.85700741      -0.16922795       0.28450405       0.04224248      -0.32017913       0.62621933      -0.24088888
C       -4.79038424      -5.24223778      20.76775776      -0.28285072      -0.31708387      -0.32778111       0.68956357       0.04770926       0.59241772
H       -5.98166945      -3.57745068      20.03355971      -0.15475628      -0.04402336       0.20916390      -0.21589257      -0.41578048       0.12126899
H       -4.32500018      -3.18426380      20.23053851      -0.28806534      -0.15995584      -0.08945795      -0.21327975      -0.59701347      -0.01170779
S       -3.02249862      -5.73685214      21.15464618       0.15972352      -0.36811585       0.14259911      -0.76668954       0.73134488      -0.82437563
H       -5.29059384      -6.07052971      20.31702203      -0.05435709       0.02649944       0.01336349      -0.04330005      -0.66891015      -0.09235361
H       -5.20270274      -5.10207054      21.74451512      -0.18838039       0.13918484       0.19242218      -0.52431947       0.13696450       0.42895609
H       -2.60494109      -4.47820468      20.94069401      -0.02655218      -0.05714030       0.07809197       0.28688243      -0.23890141       0.20074007
H       -5.34679088      -5.56416638      16.77249340      -0.04321038      -0.00957538       0.23239371      -0.59968674       0.57987028       0.72508526
H       -6.68592377      -4.89732714      17.81436083      -0.14367346       0.17552887       0.00907796      -0.20953685       0.17828758      -0.26474467
H       -5.70451324      -6.29035595      18.36837330      -0.27006110       0.23822456       0.01827168       0.23549584       2.18230438      -0.94001460
C       -9.75335308      52.86455998     -14.26836219      -0.85579539      -0.01354708       0.40744126       0.15239187       0.62652493       0.08636750
C       -8.65891570      53.68582178     -13.55983651      -0.34565409       0.10233359      -0.28180748       0.53926688      -1.15534079      -0.95972914
C      -10.45368379      53.63978987     -15.38048236      -0.96129098      -0.53801911      -0.02610991       0.47328824      -0.49913830       0.20162159
H      -10.50591091      52.55255473     -13.55571920      -0.28317668       0.04940940      -0.09997767      -0.11719378      -0.28868592       0.27056468
H       -9.29213818      51.98255483     -14.70458752       0.01280169      -0.01225698      -0.24221701      -0.14877437       0.02106733       0.14344588
C       -7.97555740      52.89602732     -12.45849944      -0.43380867      -0.98206567      -0.18805403       2.24297762       1.32058561      -1.58578396
H       -9.04267076      54.61119808     -13.20186537      -0.03422991      -0.12714208       0.18339311      -0.28071916       0.80299664       0.24530521
H       -7.90369262      53.87446652     -14.33386366      -0.11689644       0.21849793      -0.28339818      -0.16167729       0.39863998       0.28468961
S       -6.80720862      53.84720238     -11.38634901       0.08109820       0.56797453      -0.16553645       0.01815358       0.32866240      -0.36013073
H       -7.37403669      52.10571925     -12.89991579      -0.16189129      -0.21141236      -0.07764025      -0.36585903      -0.23420569       0.08358257
H       -8.66092085      52.51328926     -11.79969307      -0.33512275       0.08230558      -0.09473532      -1.62855840      -1.09618771       1.69731092
H       -5.94688847      54.36199435     -12.32315265      -0.08318389       0.09150299       0.02337436      -0.60091454      -0.44455478       0.39003962
H      -11.24514536      54.27558279     -15.04387933       0.18800232      -0.09325662       0.17332128      -0.01806115       0.89519346       0.45712116
H      -10.98161810      52.95547753     -15.99184118      -0.02730532      -0.12598558      -0.04948344      -0.43506220      -0.91979539      -0.80340379
H       -9.74084514      54.12736670     -16.03375121       0.22064355       0.29092081       0.07589802       0.04709509       0.45258111       0.09144464
C       25.86479862       8.49021208      51.87466757       1.10900087      -0.17739184      -0.42704182      -0.08369642       0.94323659      -0.36852926
C       24.61579850       7.61696893      52.20252624      -0.26174227      -0.54824763      -1.28693159       1.11500764      -0.25828949       1.39424944
C       27.12183307       8.34743320      52.78570402       0.48725690       0.20874963       0.18554275      -1.83448100      -2.57392597       1.18086970
H       25.56350155       9.55416970      51.89308822      -0.00147987       0.05492022      -0.05937363       0.00003929      -0.37874871       0.28370541
H       26.11605857       8.40911394      50.80961104      -0.04316186      -0.00001975       0.26245767       0.25302765      -0.56561786       0.21343584
C       23.70412702       7.19521057      51.10120259      -0.03801859      -0.01688296       0.08161702      -0.45531482      -0.19273090      -0.79507923
H       23.95406657       8.15091509      52.89615841      -0.10989494       0.18666109      -0.23655148       0.47098175      -0.13450220       0.30524975
H       24.95404190       6.68252533      52.70237679       0.14010259       0.37560927      -0.41110436      -0.14265068       0.59022224      -0.11034399
S       22.82711174       8.68576846      50.47895533      -0.04540823       1.13717594      -0.22284570      -0.07809798      -0.84586704      -0.31564075
H       22.95687493       6.49714927      51.51059283      -0.04720712      -0.16450127      -0.13683126       0.22784118       0.36517999      -0.22744116
H       24.22624993       6.68357738      50.28543209      -0.09550291       0.15196625       0.00087647      -0.09558534       0.21794099       0.05442001
H       22.00408488       7.98294710      49.68616158      -0.18920989       0.34500504      -0.32878077       0.00250062       0.26245973      -0.03026578
H       27.50194720       7.29109300      52.85939820       0.05833325       0.31877451      -0.01868673      -0.72064853       0.61421883      -0.30841175
H       26.88603301       8.58730778      53.84761072       0.03108553       0.04965186       0.13239243       0.17098415       0.20633812      -0.88489991
H       27.97577745       8.84579171      52.46136396       0.22523259      -0.13161874       0.04466785       1.10634136       1.45590401      -0.63616389
C       21.91055074      48.64182852      -7.85526672       0.49549857      -0.17003534      -1.74185598      -0.52762365      -1.52621603      -1.97468150
C       20.96563902      48.55068304      -6.66441686       0.17786502      -0.36877636       0.39806444      -0.06056343       1.05238092      -0.14848433
C       21.49782356      49.51499644      -9.08059671       0.74602170       0.07419691       0.69274235      -0.75545096       0.28421688       1.97408986
H       21.88101083      47.59519445      -8.30641835      -0.06457679      -0.10664769       0.21019855       0.59613734       1.00742233       0.82440102
H       22.94680557      48.89711422      -7.57338986      -0.15156149       0.18335418      -0.06523772      -0.62321442      -0.20857844       0.02333981
C       19.51773100      48.14950041      -6.96654762       0.31245353      -0.11835403      -0.50173431      -0.76639146      -0.45404357      -0.77607363
H       20.85033447      49.53632256      -6.18028833       0.13927795       0.11922789       0.23187394       0.16959928      -0.15467632      -0.20817491
H       21.46516031      47.94485730      -5.90518926       0.07720065       0.09730378       0.03717459      -0.48451585      -0.31396320      -0.07930569
S       19.23682964      46.51967625      -8.01257826      -0.90640541       0.30493792      -1.28644242       0.48326156       1.17089260       1.52723241
H       18.95539364      48.91695004      -7.58966835      -0.19030379       0.18650842       0.27059244       0.92117405      -0.89977109       0.69590914
H       18.98161572      48.06579656      -6.00317813      -0.04975685       0.00127269      -0.04463157       0.11148168      -0.25635991      -0.75387061
H       19.59842773      45.62358158      -7.04781585      -0.13373079      -0.01865476      -0.00449680      -0.12244604       0.40620410      -0.46708733
H       21.30818305      50.52433775      -8.76367854       0.24143963       0.23551326       0.14764357       0.32414269       0.76739579       0.21543452
H       20.55290755      49.27409077      -9.54551297       0.20142413      -0.08598659      -0.18589801      -0.09866155      -0.78112370      -0.13872255
H       22.27730510      49.51727350      -9.79162798      -0.26924308       0.09592957       0.09785853       0.72066569       0.08271965      -0.86221564
C       -1.31687155      23.25756219     -13.05681352       0.06729389       0.80378406      -0.67256408      -0.00438106      -0.82642198      -2.32790780
C       -1.42497804      24.13298634     -11.83476204      -0.13099397      -0.80247559       0.92949371      -0.12703790       0.74493945      -1.01282513
C       -2.63267122      22.98121565     -13.84538461       1.24411361      -1.13326488      -0.28764598       0.14099462      -0.66856080       1.54278612
H       -0.75098870      22.35061517     -12.81249447      -0.00614567       0.16362614      -0.19730911      -0.72888172      -0.32574546       0.34464684
H       -0.60808767      23.60388765     -13.86376152      -0.21894418      -0.17173085      -0.21608008      -0.63169456       0.66133583       1.08878422
C       -0.06337797      24.18507102     -11.19622444       0.37405577       0.39835387       0.68497391       0.58584225      -0.05658045       1.51591468
H       -2.11993367      23.73381118     -11.11555318       0.21239889      -0.19116359      -0.07511450      -0.39503580      -0.35581395       0.20902979
H       -1.83361130      25.15195353     -12.11993562      -0.27511144       0.29839782       0.19314450       0.63384765      -0.97160178       0.43868101
S        1.08788188      25.17059554     -12.23689598      -0.75936251       1.34419418      -0.21786247      -0.61198902       0.62054998       0.27469653
H        0.36423485      23.12238976     -11.07612285       0.15552586       0.00176673       0.15749685      -0.51655424       1.79394794      -0.21880881
H       -0.14507163      24.66531622     -10.17721419      -0.17195453       0.08882522       0.16631679       0.43217367      -0.71829647      -1.20256925
H        0.21141344      26.22561828     -12.36534916       0.01344827      -0.01589885      -0.19775416       0.67799962      -0.61432558       0.08346603
H       -3.11898772      23.90125405     -14.07256241      -0.11694657      -0.49418995       0.18151663      -0.44224101       0.91024077       0.06031837
H       -3.37400335      22.33647330     -13.30267276       0.15038877      -0.04184732       0.01219623       0.76890683       0.50767946      -0.47599751
H       -2.40510116      22.57887049     -14.81032164       0.23742421       0.08338116       0.10652568       0.11453797      -0.66603816      -0.44549912
C        3.71383438      23.28781034       9.97170410      -0.63597527      -0.03508051      -0.38410673      -0.91269433       0.08071886       0.69235575
C        4.47085843      21.96203062      10.14468500      -0.07238208      -0.29563606      -0.26235504      -1.74917495      -0.56518519      -1.57071364
C        4.66842372      24.43829227       9.83017516       0.05182813      -0.69626326       0.91689695       1.10324061      -0.56725162      -0.54219329
H        3.01759845      23.47638548      10.84015106      -0.08867197      -0.10244690       0.15954672       0.89980018      -0.42814237      -0.72197139
H        3.03824752      23.33666027       9.10057570       0.00689888      -0.04436512       0.22954834       0.24632679      -0.59769964       0.15975738
C        3.47363694      20.75791482      10.19286119       0.26950079      -0.73850549      -0.28510835       1.01360130       0.94656360       1.53388286
H        5.05179012      22.00033517      11.04002774      -0.02877023       0.09925207      -0.02098591       0.57070327       0.02037399       0.41958052
H        5.11103929      21.77850218       9.23248273       0.09272268      -0.06816558      -0.07481458      -0.35685059       0.24588150       1.10585177
S        2.14863565      20.82239407      11.46052895       0.87079280       0.23376669       1.20502938       0.36268786       0.09895412      -0.22074020
H        3.97914574      19.81929332      10.31428441      -0.27642178       0.11574353      -0.19377859       0.33130878      -0.39384973      -0.00369320
H        2.96280708      20.73030172       9.28670760      -0.13799256      -0.01336883       0.06047576      -0.94917870      -0.11992520      -1.59016430
H        2.92235236      20.50576490      12.49720907      -0.04700875       0.27697351       0.41965992       0.08467880      -0.02032904       0.16376156
H        4.13961480      25.35098509       9.65328625       0.11527195       0.10525117      -0.25351859      -0.17614695       0.74388433       0.85350102
H        5.18345030      24.33434786       8.85873714       0.01127320      -0.22656511      -0.20288353       0.33977938      -0.22356921       0.50584161
H        5.41030811      24.40531973      10.66604483      -0.18762341       0.02503605       0.06554042      -0.59796953       0.62963259      -0.75226498
C       18.22523740       4.23396169      10.67261704       0.03964999      -0.17845508      -1.09772344      -0.49039987      -1.17357528       1.95130432
C       17.90824004       2.94729174      11.53461767       0.52059158      -0.03345981       0.41388066      -1.50070310       0.93168634       0.11952531
C       19.13765024       5.25945188      11.35174683       0.36062384      -0.95304192       0.12692351       0.02256858       0.63664454      -1.89977837
H       17.23476946       4.64991526      10.52309659       0.04693852       0.09062888       0.00390892      -0.06370800       0.30764180      -0.29665005
H       18.61006391       3.95817454       9.70642825      -0.08106778       0.06988000       0.20506149       0.31197232      -0.10150538      -0.29245871
C       17.01485190       3.30596913      12.77672299      -1.22849391      -0.06563818      -0.21441464      -0.31608400      -0.32637510      -1.03613055
H       18.73168754       2.37233473      11.91233464       0.08610323      -0.16141506      -0.14695928       0.80342138       0.00494931      -0.05930921
H       17.29122638       2.25841923      10.94198581       0.15673387       0.21452451       0.06229546       0.36575294       0.08584777      -0.02447266
S       15.24254019       3.73217941      12.20578943       0.82415585      -0.70418896      -0.12046317       0.99324811      -1.69806504       0.21793897
H       17.35451153       4.24950842      13.21168279      -0.21147240       0.01373522       0.26307190       0.04845437      -0.55718815       0.36237031
H       16.97996669       2.44937085      13.49738104       0.14687680       0.01584618      -0.17083117      -0.07245158       1.03097057      -0.55466986
H       15.39391661       4.96223241      12.54708995       0.09781924      -0.39067714      -0.06671545      -0.08714980       1.53320849       0.31482232
H       18.76504235       5.67702035      12.29372971       0.06321927       0.00948598      -0.23587016       0.20382425      -0.26366234      -0.26442337
H       19.21135450       6.08427818      10.58866142      -0.03578940      -0.07848684      -0.31076421       0.00141349      -0.45201170       1.10098088
H       20.15455961       4.87065595      11.40874039       0.22321818      -0.21803794      -0.08157060      -0.07723184       0.03109571       0.49034715
C       -8.27136416      10.22979809      -4.30956478      -0.09119842       0.56896367       0.02803040      -3.15006685       3.06118441       0.26737916
C       -9.45085071      10.26893212      -5.39060511      -0.06986065      -0.16999585       0.69018256       1.18879080       0.24652052       1.74182677
C       -8.65331544       9.32045753      -3.19266574      -0.68594982       0.10777229       0.86661993      -1.53400683      -0.40979344       2.01518440
H       -8.14145687      11.27141414      -3.85699631       0.03023317       0.09046715      -0.59601387      -0.09872822      -1.18806553      -0.76856518
H       -7.37439410      10.00981674      -4.74623288       0.03623054      -0.04507228      -0.13073462       2.30077672      -0.85091466      -1.22823513
C       -9.20349650      10.84796952      -6.75268770       0.37490874       0.36703088      -0.57032659       0.13709658       2.54442811       1.61654210
H      -10.33845648      10.70315958      -4.90945966       0.20309141      -0.08748438      -0.23603518       0.24029501      -0.03018196      -0.28941610
H       -9.66907947       9.23674503      -5.53683560      -0.09793999       0.10837634       0.06906944      -0.42948201      -0.93303210      -0.27321228
S       -9.13695005      12.69160447      -6.92501476      -0.22551586      -1.20163457       0.47763202       0.52245337       0.32563826       0.39924484
H      -10.00150777      10.65853345      -7.37773950       0.16447166      -0.14352641      -0.10329848      -1.16169643      -1.26498342      -1.55562842
H       -8.23148970      10.68586699      -7.13800250       0.16285808      -0.21074577      -0.06093331       0.73319101      -1.03948462      -0.57689440
H      -10.38729144      13.09446653      -6.67771095      -0.27072986      -0.06841501       0.05581348      -0.16839990      -0.37423283       0.09626082
H       -7.80824459       9.07141010      -2.50477122       0.02315582      -0.15237986       0.10177036      -0.80303717       0.33295369      -0.45697123
H       -9.12597001       8.38601083      -3.51294604       0.05737213       0.17130978      -0.10053021       0.53583598      -0.11457373      -0.28853381
H       -9.54580285       9.76572611      -2.59684050       0.27413758      -0.13325054      -0.03744804       1.70911145      -0.39831221      -0.63546717
C       12.94477145      19.40872204       5.54262939      -0.13937323      -0.58854990       0.43272573      -1.96311235      -1.62310350       0.61005241
C       12.00716498      19.61512241       6.75015554       0.86343446      -0.18958283      -1.19530957      -0.92965674       1.08902299      -1.18011069
C       13.50343092      18.00722118       5.56439974       0.53954085      -0.34718345       0.17715345      -0.90399134      -1.63594508       2.17505097
H       13.75225160      20.05951655       5.50849710      -0.14396869       0.01105554      -0.01265261       1.39603198       1.49939680       0.07610320
H       12.37806686      19.51475107       4.63887920      -0.25135416       0.05218210       0.04547541      -0.48086753       0.46266744      -0.50413030
C       11.39349130      21.03601744       6.75885837      -0.41667717       0.62170044       0.50017680       0.12124191      -0.28018543       0.81127495
H       12.46936628      19.53357376       7.69756553      -0.00776220       0.01286542      -0.07270390       0.79905337      -0.69055951       0.83408880
H       11.24673212      18.82686136       6.64687195      -0.07287072      -0.09517580      -0.06997078       0.01944296       0.42312270       0.31644982
S        9.89086279      21.27486683       7.86443407      -0.17234268       0.38514344       0.45245494       1.21600628      -0.31897253      -0.65473735
H       11.09995478      21.31168078       5.78240927       0.07525895      -0.27948697      -0.00207478      -0.51983166       0.09780563      -1.04569733
H       12.13593373      21.80110836       7.06049983      -0.19432952       0.12773676       0.00430254      -0.27027172      -0.70713449       0.10654568
H       10.06969043      22.58583384       7.75663421       0.07547824       0.35418721       0.54527978      -0.35624281       0.37222129       0.23316734
H       12.73878183      17.12311139       5.71022537      -0.10444024       0.15918577       0.26810453       1.10077524       1.92505872      -0.82702935
H       14.00982259      17.96351125       6.55542901       0.00497986      -0.03171515       0.05913505       0.45498058      -0.36884779      -0.92721337
H       14.14931546      17.83790483       4.71803813       0.01638295      -0.02430058       0.27819160       0.29047176      -0.32707906       0.09929903
C        9.86363258      -1.69450947      -0.63836627       0.22942715      -0.66107921       0.32898970      -1.54213142       1.13295913       0.24720591
C        9.07614117      -1.76577461       0.68131978       0.50971686      -0.36060794       0.98132030      -2.05529857       0.48268732      -0.89278346
C        9.01573701      -2.20525352      -1.81466513       0.18251573       0.83766266       0.20070885      -1.36179733       0.58105224       0.62992805
H       10.69961249      -2.34364640      -0.52920986       0.03653604      -0.11698658      -0.15646978       1.05236602      -0.22784679      -0.08692317
H       10.16143034      -0.61431724      -0.74153890      -0.35790503       0.18138047       0.25497547       0.07724353      -1.16829574      -0.26834178
C        9.92925661      -1.58038920       1.87937502      -0.37200771       0.08085118      -0.51434779       2.70651484       0.21291079      -0.43939075
H        8.54658213      -2.77314361       0.73018262      -0.14545177      -0.14373980       0.09374174       0.45200545       1.25850201       0.08145047
H        8.30343634      -0.91715749       0.70075792       0.03327665       0.03181315       0.26630944       0.75080204      -1.45670021      -0.20568286
S        9.07186764      -1.53173644       3.40702106      -0.37610607      -0.03441060      -0.27299034      -0.46306723      -0.21791583       1.02022803
H       10.49863644      -0.59951489       1.87288815      -0.04654309       0.01028046      -0.08815070      -0.64029491      -1.03677368      -0.30592328
H       10.71117304      -2.38901709       1.83567110      -0.13603595      -0.19222934       0.01397952      -0.55710924       0.73861086       0.47325057
H        8.39664732      -2.65748815       3.20825794      -0.03485780      -0.13860266      -0.09592157      -0.22246763      -0.26586270       0.14885972
H        8.69408909      -3.24345082      -1.63004667       0.07919613      -0.00060434       0.05106474       0.57391870       0.24944577      -0.38348997
H        9.50283797      -2.03884681      -2.75350046      -0.09567821      -0.05649248       0.01758706       0.43534440      -0.47450441      -0.51329255
H        8.03838740      -1.67792536      -1.94526372      -0.02515757      -0.32652437      -0.03788725       0.71752816      -0.01788888       0.48961249
C       27.59146662     -12.41028070      22.10509615      -0.50798949      -0.49131916      -0.20369212      -0.16549578      -1.16006660      -1.11549234
C       28.87538284     -13.15694134      21.72060747       0.94959852      -0.18518265      -0.92748005       0.64852870       1.47836149       1.54103065
C       27.64561579     -10.87666862      22.14663242      -0.12211511      -0.28593951       1.11468649      -0.09449783      -0.79931653       0.71261513
H       27.20710149     -12.94203573      22.98503095      -0.04741975       0.08450343      -0.30278068       0.06117687       0.84118176       0.16607995
H       26.87789189     -12.71727657      21.32445845      -0.01064771      -0.25958770      -0.13639290       0.00920539       0.18439965       0.17925146
C       28.82227843     -14.58768071      22.07291938      -1.18845430       0.40281153       0.06003490       0.68327951      -1.00562799       0.36515510
H       29.76227835     -12.64711995      22.11823941       0.06283623      -0.13147559       0.07101887      -0.24509895      -0.34626222       0.26648927
H       29.03932710     -13.12992713      20.69899069      -0.03524695       0.07995759      -0.04953261       0.07321577       0.30777115      -2.20291018
S       30.18336079     -15.61058774      21.43861475       0.13918777       1.29367414       0.45708785       0.03226787      -0.03492197      -0.16801882