13
Properties=species:S:1:pos:R:3:forces:R:3:MACE_forces:R:3:bec:R:9 smiles="[H:7][C:3](=[O:1])[O:2][C:6]([H:12])([H:13])[N:4]([H:8])[C:5]([H:9])([H:10])[H:11]" total_charge=0 energy=-8814.086601138557 config_type="DES370K Monomers" MACE_energy=-8814.087402926683 dipole="0.3200314858443238 0.028872260899084595 -0.07395010254177607" pbc="F F F"
O       -1.34060156      -0.06346668       1.08415568       2.36599928      -0.76210418      -0.98690257       2.35034889      -0.70549990      -0.99212901      -0.93131517       0.09290729       0.25583672       0.34948733      -0.64547603      -0.01273497       0.09909484       0.10973137      -0.42533956
O        0.88877273      -0.75426149       0.50226134      -4.08951854      -0.13443515       1.52580024      -4.09064536      -0.08193448       1.49315396      -1.09959135      -0.15157459       0.49709776      -0.33709015      -0.72556222       0.46345846       0.51131971       0.37421219      -0.81496761
C       -0.41607585      -0.85436827       1.03447938      -0.32004373      -0.90610429       1.67344343      -0.31242285      -1.00388310       1.66962088       1.73292070       0.05725685      -0.71587921      -0.17310588       0.97425456      -0.21313236      -0.47135155      -0.31445321       0.66488654
N        1.91350877       0.03801147      -1.30650151      -0.21956995       0.00982243       0.03678569      -0.23529407       0.01204645       0.02001869      -0.41036543      -0.05719151       0.24864155      -0.02504264      -0.76406295      -0.01785594       0.28505317       0.03638420      -0.56356802
C        2.10674810       1.14214682      -2.19777178       0.89598801       1.24552836      -0.40871205       0.89529637       1.24569425      -0.42674925       0.09264815       0.07673355       0.04558382       0.14021132       0.59063348      -0.10558637      -0.05264104      -0.12401787       0.40360338
C        0.82119930       0.30348003      -0.39579207       1.60657510       0.86852120      -1.48546320       1.64517384       0.86624880      -1.44917367       0.63382633       0.06031204      -0.28174446       0.27486202       0.81131907      -0.20113149      -0.37744643      -0.12499368       0.92306345
H       -0.54381937      -1.84073114       1.53205276       0.48155236       0.36646241      -0.36048872       0.47783667       0.37662945      -0.35510245       0.04293408      -0.02182842       0.02881419      -0.02433061      -0.11130864       0.10359811       0.03036544       0.09514899       0.00392880
H        2.77525449      -0.15109135      -0.78796148      -0.54786535       0.15705837      -0.17860566      -0.55292904       0.16473501      -0.16947438       0.10139581       0.00326595      -0.00727370      -0.05614400       0.26624977       0.02076133      -0.05878927       0.10036772       0.07478485
H        2.31770420       2.12348365      -1.62512601      -0.12618814      -1.19524016      -1.19268120      -0.12151207      -1.20328805      -1.19752695       0.03522444      -0.03271011      -0.01148994      -0.09905071      -0.23584610       0.01704712      -0.02617357      -0.13159739      -0.06520657
H        2.86924839       0.86652326      -2.93036651       0.66583723       0.38639414       0.59163803       0.67299402       0.38876223       0.59636958      -0.04678281      -0.00770775       0.12502865       0.04446982       0.01961341      -0.02164159       0.12158074       0.00175575      -0.03402398
H        1.31337631       1.29605699      -2.92682552      -0.80436661       0.03794546       0.65912503      -0.80440868       0.03636423       0.66854646      -0.05962171       0.02134829      -0.12232884      -0.02844264       0.00939664       0.03801712      -0.09781902       0.03175152      -0.02065060
H        0.91030419       1.27007496       0.11608167       0.04423635      -0.02292223       0.13733397       0.03206337      -0.02943552       0.13372641      -0.02560970      -0.04814106       0.01118558      -0.03075033      -0.18634137      -0.07021445       0.06571830      -0.06438777      -0.11768885
H       -0.11594058       0.31551602      -0.95136749       0.04830558      -0.05225387      -0.01207721       0.04349892      -0.06643937       0.00871973      -0.06530150       0.00732060      -0.07368921      -0.03497820      -0.00279170      -0.00074180      -0.02929282       0.01008878      -0.02851944
20
Properties=species:S:1:pos:R:3:forces:R:3:MACE_forces:R:3:bec:R:9 smiles="[H:12][C:4]([H:13])([H:14])[N:2]([H:8])[C:6]([H:17])([H:18])[C:7]([H:19])([H:20])[C:5]([H:15])([H:16])[S:1][C:3]([H:9])([H:10])[H:11]" total_charge=0 energy=-17727.585904449643 config_type="DES370K Monomers" MACE_energy=-17727.58608080163 dipole="-0.2711771124545712 0.045786705020793766 0.13137093130580266" pbc="F F F"
S        2.92195510      -0.22554377       0.34545577      -0.28889206      -0.22828484      -1.90127644      -0.29455032      -0.22204260      -1.91431090      -0.19847825      -0.06335133      -0.11253071      -0.11512861      -0.15641021       0.04381161      -0.11461351       0.00771816      -0.13636848
N       -2.01893139       0.03144698      -1.84446072      -0.60650755      -2.97148044      -1.73623128      -0.62575827      -2.98246523      -1.73731549      -1.02355775       0.16820413      -0.03110484       0.03782009      -0.25799923      -0.00817260      -0.07373312      -0.16600526      -0.70059093
C        2.19636703       0.21928144       1.89587164       0.14916829      -0.87847452       1.01188996       0.16251415      -0.88045720       1.00596270      -0.05945419       0.02086768      -0.00175569       0.07958310       0.05311607       0.04597096      -0.04436816       0.05210847       0.11329392
C       -3.00508761       0.71449470      -1.13087284      -1.42202679       2.12267348       0.40675169      -1.42845919       2.10271858       0.41526297       0.52724785      -0.24621869      -0.11969177      -0.36418594       0.43320083       0.06817769      -0.20489772       0.14277926       0.40809081
C        1.66131639       0.43231639      -0.95045501      -1.02673053      -1.01402869       3.27857034      -1.01693298      -1.01376474       3.29834136       0.21371725      -0.02353193       0.20659084       0.02658313       0.10344720      -0.05476726       0.22391492      -0.06045658       0.18746159
C       -0.65434807       0.56585169      -1.90582502      -0.47941706      -2.46006657       1.41389643      -0.45301722      -2.48630665       1.41612915       0.69868746       0.04500402      -0.00493365       0.06974437       0.13446251      -0.12774630       0.07740905      -0.04461717       0.39953644
C        0.22629766      -0.23529829      -0.89859003       1.16104403       1.55024926      -0.31776294       1.12924485       1.55086341      -0.32831063      -0.01302676       0.02688851      -0.00508781       0.09684784       0.05893218       0.15603032      -0.14433706       0.06714914      -0.05005650
H       -2.23590374      -1.03984058      -1.79621720       1.61548347       2.95747331      -0.24765197       1.62222259       2.96056607      -0.25192269       0.09719101       0.04551190       0.05705700       0.03150058       0.03907489      -0.02052511       0.12072299       0.08103317       0.27775347
H        2.61383533      -0.44606265       2.71230078      -0.76361243       0.40034590      -1.12137575      -0.76210356       0.39881996      -1.12357578       0.07629981       0.04081097      -0.03048091       0.02480252       0.03333565       0.05259154      -0.04981973       0.06148283      -0.08282999
H        2.55117416       1.19119203       2.17093372      -0.47056546       0.78482617       0.13357064      -0.47717611       0.79151185       0.13517066       0.05319747      -0.02930092       0.01759318      -0.01597210      -0.08096647      -0.09812394       0.01703025      -0.04616490      -0.04073079
H        1.11151802       0.10909163       1.77803814       0.36552128       0.26525775       0.65066662       0.36564108       0.26650499       0.65212312      -0.06401590       0.00440777       0.08096250      -0.00558937       0.06442291      -0.04101505       0.01610732      -0.01589413       0.04014594
H       -3.15911770       1.78606653      -1.50538099      -0.22858742      -1.46824963      -0.01358961      -0.23223597      -1.45530698      -0.00897343       0.00092900       0.03467287       0.01246262       0.15996476      -0.22816251       0.07754975      -0.00151495       0.07756305      -0.00344332
H       -3.97086739       0.15464401      -1.04600692       0.82660060       0.60019919      -0.47818602       0.83325157       0.60924663      -0.47945494      -0.13999669      -0.04243897       0.01531397      -0.10993062       0.00085846      -0.00448217       0.04794787      -0.01880946       0.07199430
H       -2.69037223       0.89927900      -0.13335261       0.16283384       0.12011504       1.55996340       0.15576207       0.12171055       1.56556405      -0.04386469      -0.00907810      -0.10036228       0.06760866      -0.03359881      -0.04768649       0.03576657      -0.06484380      -0.27140035
H        2.17389464       0.23598951      -1.84425532       0.49745922       0.08714551      -1.28364321       0.50782790       0.07992754      -1.28776034      -0.00328074      -0.00534368      -0.02035829      -0.00009770       0.06687902      -0.00352859       0.01799834       0.00905354      -0.05374607
H        1.51056862       1.49764359      -0.71646261       0.35008019      -0.35620522      -0.47003090       0.34894266      -0.34687830      -0.45472688      -0.03016141       0.06424523      -0.06516613       0.02912601      -0.10636595       0.03357756      -0.03855028      -0.00865545       0.01433364
H       -0.59274691       1.61039901      -1.65289891      -0.53497588       0.40493807       0.03749446      -0.52823633       0.41359244       0.03290758       0.00857964      -0.00897371       0.00554572      -0.00743131      -0.09185259      -0.01142376      -0.00116148      -0.04975848       0.04272794
H       -0.25729772       0.42953664      -2.90094900       0.18521084       0.05602366      -0.30147726       0.19967191       0.05758465      -0.31270834      -0.09946013       0.00562234       0.07250736       0.02275826       0.04239555      -0.01386315       0.07772104       0.01306767      -0.13061494
H        0.15975747      -1.27873492      -1.15285659       0.57709615      -0.40676511      -0.34781194       0.55866032      -0.39968416      -0.34591399      -0.00427087      -0.02978228      -0.02596060      -0.02272793      -0.10852802      -0.03781433      -0.02075622      -0.03769539       0.03184883
H       -0.16993536      -0.20086339       0.12299710      -0.07186300       0.43590336      -0.27272088      -0.06526914       0.43385920      -0.27648817       0.00403795       0.00177840       0.04930127      -0.00529985       0.03383160      -0.00849932       0.05930164       0.00098505      -0.11720271
20
Properties=species:S:1:pos:R:3:bec:R:9:forces:R:3:MACE_forces:R:3 dipole="0.02389262612588825 0.02623975809975935 -0.028787196111302298" total_charge=0 smiles="[H:7][C:1]([H:8])([H:9])[C:5]([H:19])([H:20])[C:6]([C:2]([H:10])([H:11])[H:12])([C:3]([H:13])([H:14])[H:15])[C:4]([H:16])([H:17])[H:18]" energy=-6453.982378242523 config_type="DES370K Monomers" MACE_energy=-6453.982576187522 pbc="F F F"
C        1.03907764      -1.76452219       0.64715892       0.06776500      -0.02104003       0.07333361      -0.01084403       0.07961090       0.06311329       0.07046087       0.10974496       0.00617464       3.32809677      -4.50341428      -0.51437458       3.32531923      -4.50360703      -0.54056701
C       -1.26803410      -0.16964495      -1.11057782       0.03084173      -0.01011809      -0.02926329      -0.01941360       0.00825829       0.01248560      -0.02968848      -0.00295087       0.04381853      -0.77803418      -0.63818253      -0.74159346      -0.76250142      -0.64653551      -0.74007816
C       -0.80418414       1.61543310       0.50951666       0.09987087       0.02339753       0.01371492       0.04369734       0.01623716       0.00189414      -0.01003743       0.01264392       0.06862465      -1.69344467      -0.21213930      -0.27176676      -1.69005995      -0.22109501      -0.27066973
C        1.05957258       0.75160861      -0.87567681       0.00137715       0.00025354       0.01242768       0.03144514       0.00180798       0.04400626       0.01788218       0.04802881      -0.00454677      -0.96006863       0.38853346      -1.14762571      -0.96995793       0.41304016      -1.14739300
C        0.02131242      -0.84859931       0.99290967       0.08444222      -0.00640898       0.03357587      -0.00351785       0.04226375      -0.02655419      -0.02976351      -0.03128598       0.07977915      -1.88601081       3.75009374       0.40329838      -1.87718019       3.71978647       0.40372482
C       -0.21700886       0.33722788      -0.09246365       0.11368093       0.01390969       0.00341488       0.00869991       0.14755983      -0.05464791       0.01634321      -0.05104684       0.13472761      -0.17817155      -1.38278241      -0.18347432      -0.17202309      -1.36369227      -0.17517486
H        1.70228588      -1.53421772      -0.13357067      -0.00549968      -0.01785957       0.08012450      -0.03343183       0.05779499       0.03526586       0.10226678       0.01228618      -0.03365392       0.44237243       1.20719489      -1.50663957       0.43369392       1.20635134      -1.49738850
H        0.66957980      -2.75118637       0.23115238       0.01184843      -0.05882531      -0.02857583       0.01105564      -0.15471324      -0.05912124      -0.02692337      -0.11207887       0.04924680       0.40407180       0.67732073       1.16183673       0.40505919       0.68425740       1.17167125
H        1.87004792      -1.85798991       1.42280948      -0.07613770       0.10652893      -0.12603757       0.03153825       0.00655850      -0.02053893      -0.13093012       0.04331404      -0.03821412      -1.54993261      -0.69301665      -0.38316719      -1.54665489      -0.69247687      -0.38323609
H       -1.93381476      -0.94716376      -0.67108822      -0.03217582      -0.09500409       0.02568277      -0.10205648      -0.04188469       0.02495454       0.06033017       0.06575564       0.00443217       0.67192525       0.32412783      -0.25946376       0.66785193       0.31979024      -0.26195406
H       -0.85312599      -0.56749105      -2.07590365       0.01144666       0.02766941       0.07096105       0.00973924       0.02259139      -0.07604472       0.02892168      -0.08390262      -0.10503706      -0.23023469       0.26456880       1.02713173      -0.23425371       0.26468816       1.03013641
H       -1.99370158       0.61530512      -1.38203966      -0.03979174       0.08220828      -0.05954484       0.11229544      -0.06195160       0.05747459      -0.03760112       0.02443451       0.01844050       0.53411003      -0.02581167      -0.07518353       0.53061686      -0.03002904      -0.07396155
H       -0.17253272       1.97097302       1.33367086      -0.01349239      -0.05502001      -0.09974362      -0.01566096       0.02105043      -0.04305857      -0.05741665      -0.07700754      -0.05158644      -0.46548293       0.18806020      -0.19632632      -0.46065203       0.19168848      -0.20070131
H       -1.90727711       1.39812648       0.83202249      -0.14829705      -0.00027095       0.09176293      -0.05743792       0.03360087       0.01044380       0.05627572      -0.00705087       0.01872443       2.09421734       0.54912853      -0.15782799       2.08534743       0.54805308      -0.15992414
H       -0.87517512       2.35984444      -0.34505868       0.04478619       0.00591377      -0.00083304       0.02055379      -0.06174883       0.06353492      -0.01640484       0.12709178      -0.06521017       0.11939472      -0.61073586       1.33926046       0.12579246      -0.60990443       1.33548622
H        1.43801272       0.06981571      -1.66223812      -0.00650775       0.02198226       0.05045232       0.03681797      -0.02446128      -0.08861261       0.08464037      -0.10553056      -0.01387814      -0.15944218      -0.16858389       0.95699394      -0.15871267      -0.17579227       0.95283515
H        1.85286427       1.12821531      -0.25668034      -0.07099023      -0.05769542      -0.04086979      -0.06446505       0.05629105      -0.04032755      -0.07800279      -0.04281920      -0.01249737       0.41869635      -0.07982256       0.35621060       0.41881260      -0.08311534       0.35209067
H        0.72968787       1.60071420      -1.50286424       0.02956988       0.06974319      -0.04868174       0.03207945      -0.09949651       0.11115039      -0.02052414       0.10317771      -0.01013880       0.19864222      -0.12282571       0.34901938       0.20583874      -0.11666222       0.35206841
H        0.36226034      -0.42583600       1.92815017       0.01460983      -0.00786639      -0.08106888       0.01763682      -0.03036959      -0.06479885      -0.03261993      -0.07077228      -0.12313880      -0.25469626       0.80171074       0.24444148      -0.25174426       0.81053920       0.25169738
H       -0.90829170      -1.35285830       1.27202499      -0.11718752      -0.02124990       0.05898006      -0.04843097      -0.01938582       0.04969257       0.03269411       0.03826667       0.03384124      -0.05573541       0.28634540      -0.40097928      -0.07459223       0.28471548      -0.39866190
14
Properties=species:S:1:pos:R:3:forces:R:3:MACE_forces:R:3:bec:R:9 smiles="[H:9][C:5]([H:10])([H:11])[O:3][P:7](=[O:1])([O:2][H:8])[O:4][C:6]([H:12])([H:13])[H:14]" total_charge=0 energy=-19675.767253631486 config_type="DES370K Monomers" MACE_energy=-19675.773763631452 dipole="-0.06503045537565856 -0.6237366595068047 0.05448113401054576" pbc="F F F"
O        0.69083428       1.12631714       0.46780783      -0.33772710      -0.84318485      -0.67077144      -0.33944212      -0.84870559      -0.69647100      -0.90689094      -0.11017199       0.10549778      -0.11030684      -1.01460110      -0.01502238       0.01374452      -0.03990830      -0.77109983
O        0.10693931      -0.69017714       1.95003200      -0.18427923      -2.21824854       1.34476921      -0.18160097      -2.23176705       1.38630274      -0.64311698      -0.00060388      -0.10952064       0.02328716      -0.67451548       0.21837498      -0.09841077       0.25794162      -1.24126023
O        1.03068280      -1.29192138      -0.31631875       0.04685104      -0.33062256       0.11350805       0.02193823      -0.29689505       0.11786893      -1.08923909       0.11046951       0.62454164       0.19738774      -0.81619957      -0.18704501       0.62713243      -0.14098674      -1.28304601
O       -1.26310062      -0.33009309      -0.30862507       0.21607499      -0.31053134       0.88580900       0.28202622      -0.29790401       0.88321423      -1.81528036      -0.15138452       0.23395232      -0.12922481      -0.54032956       0.00729880      -0.02217252      -0.00639133      -0.61696764
C        1.74181748      -0.76507699      -1.44600999       2.33540057      -1.07730013      -0.36338049       2.35229089      -1.09633833      -0.34732033       0.52578295      -0.04103406      -0.35026021       0.12701525       0.23469979      -0.21339998      -0.42761202       0.00510899       0.77588006
C       -2.38780308      -0.49069667       0.52411032      -1.19833877      -2.38426176       1.61713187      -1.22382201      -2.37944604       1.62194817       0.89493135       0.06418449      -0.20398471       0.11035723       0.28371907      -0.05345235      -0.48178874      -0.06065920       0.40492625
P        0.13817432      -0.25228757       0.47017351       1.25459343       4.23934046      -2.51011121       1.22739965       4.22102826      -2.52410539       2.86730664       0.07114246      -0.40024728      -0.15243986       2.14495614       0.22864885       0.14443352       0.03870009       2.37207978
H        1.03981495      -0.88313871       2.16535950      -0.65490704       0.08757110       0.32177102      -0.65511195       0.08068782       0.30404367       0.31910479      -0.02409752       0.10528044      -0.05609813       0.35130187      -0.02484381       0.06455990      -0.03183626       0.41573910
H        1.11954200      -0.72657323      -2.32739711      -0.34402369       0.31332179      -0.00240402      -0.33525692       0.31143290      -0.00391716      -0.02910613       0.00277507      -0.06280061      -0.02577186       0.07321298       0.02970879      -0.00121111       0.01261901      -0.07855809
H        2.21969390       0.19103411      -1.18383145      -0.53775394      -0.29615219      -0.25859813      -0.55129717      -0.28852389      -0.25509539       0.06208741      -0.02798525       0.00624018      -0.07781148       0.02047604       0.04611237      -0.01306295      -0.03524197       0.02577016
H        2.58967256      -1.49637604      -1.69876766      -1.31970414       0.90071766       0.58091867      -1.33059061       0.90862268       0.57144408      -0.07317001       0.10001984       0.08432800       0.12468308      -0.02979168      -0.03572728       0.06686542      -0.00462288       0.00774644
H       -3.31669569      -0.82808560       0.03949927       0.83912856       0.03355825      -0.69254733       0.84788401       0.04232617      -0.68458768      -0.11586114      -0.05400764      -0.04762741      -0.06037393       0.07662810      -0.03274443      -0.05302856      -0.02968693      -0.00077711
H       -2.13667011      -1.30906009       1.26570201      -0.58974061       0.94264828      -0.61448612      -0.58459429       0.93438390      -0.61161968       0.01750534       0.06038616      -0.02410020       0.00562887      -0.04138888       0.09590214       0.08127172       0.08473157      -0.02158107
H       -2.71381164       0.36392227       1.07796180       0.47689362       0.94999605       0.24110901       0.47017705       0.94109822       0.23829482      -0.01394680       0.00029969       0.03896014       0.02371727      -0.06806987      -0.06370553       0.09958146      -0.04962530       0.01063925
22
Properties=species:S:1:pos:R:3:forces:R:3:MACE_forces:R:3:bec:R:9 smiles="[H:13][C:7]([H:14])([H:15])[C:3](=[O:1])[N:6]([H:12])[C:10]([H:22])([C:4](=[O:2])[N:5]([H:11])[C:8]([H:16])([H:17])[H:18])[C:9]([H:19])([H:20])[H:21]" total_charge=0 energy=-13501.719419537072 config_type="DES370K Monomers" MACE_energy=-13501.722492013338 dipole="0.7903989728224465 -0.4433091613903858 0.3464384141175902" pbc="F F F"
O        0.48550945      -1.64796889      -1.25455666      -0.07507927      -0.55389685      -0.54746733      -0.09055116      -0.53882903      -0.53856020      -0.67813666       0.11761557      -0.39220323       0.26179017      -0.71729771       0.01330694      -0.18536927      -0.12858682      -1.06228176
O       -1.60286557       1.80011332       0.28297985       0.79821205      -1.12357747       0.10119684       0.81788136      -1.13634275       0.10192051      -0.84446593       0.23740685       0.28952205       0.49364655      -0.76479413      -0.15264329       0.13671875       0.13280371      -0.68593992
C        1.16388380      -1.73899317      -0.24459831      -0.37976867       0.63952905      -0.36602080      -0.36382410       0.64111848      -0.36982871       0.89489398      -0.52079205       0.21113753      -0.53012433       0.91551833       0.44383392       0.02300194       0.51441102       1.46925591
C       -0.73153079       0.96549737       0.01535226      -0.27029853       2.06900451      -1.23455734      -0.29227074       2.07365740      -1.23213425       1.00131393      -0.19990928      -0.63468806      -0.41685438       0.81234503      -0.13137071      -0.51447098      -0.37297728       1.09310864
N        0.12733412       1.17232955      -1.04906058      -0.52747694      -0.31206456       0.26205327      -0.52717250      -0.31218407       0.25248876      -0.79783137      -0.02209050       0.44165508       0.01116907      -0.64795731       0.32433776       0.28923785       0.23214362      -0.86258040
N        0.81798726      -0.94755536       0.81798500       0.07364507      -0.26814997      -0.03757761       0.06762843      -0.26037679      -0.01724318      -0.60653167       0.33359492       0.27881014       0.27488877      -0.86085139      -0.38559611       0.23799622      -0.28762455      -0.84438429
C        2.38388705      -2.65483332      -0.18013340      -0.16118363       0.24397727       0.83066767      -0.16461816       0.24560674       0.82648455      -0.23117497       0.20113505      -0.02270960       0.14790084      -0.07613060      -0.01002766       0.01672212      -0.05065802      -0.00806897
C        0.00680102       2.34624600      -1.95040226      -0.83803649      -0.59844337       0.11664755      -0.84065401      -0.58562838       0.11076694       0.20155688       0.01820332       0.01548655       0.02353827       0.49152706      -0.28399667       0.00585981      -0.19976631       0.38180321
C       -0.63172907       0.18701716       2.37064052      -0.48135123       0.05096341       0.41147835      -0.48421961       0.04743746       0.41456799      -0.00072664       0.08476668       0.03049184       0.06542890       0.01965790      -0.00051378       0.01390864      -0.05417666       0.06636064
C       -0.52240300      -0.25128507       0.91274619       0.73633108      -1.39787351       0.77938654       0.74390118      -1.40716307       0.77086787       0.54778724      -0.26562601      -0.08717364      -0.17624668       0.29932401       0.13436137      -0.08689447       0.12699346       0.09560798
H        0.47431642       0.30710181      -1.42751694       0.23586687      -0.01158210      -0.17222165       0.24820030      -0.02288172      -0.17450520       0.27562144      -0.04446941      -0.04322468      -0.12009760       0.40300783      -0.04212513       0.07247611       0.05421689       0.11289460
H        1.43859565      -0.94538522       1.62280392      -0.57543306       0.10758938      -0.23836075      -0.57304475       0.10935056      -0.23689450       0.14809621       0.06118755      -0.01631515       0.05252109       0.18863295      -0.02695858      -0.01869321      -0.02745471       0.17000522
H        3.30649995      -2.06361270      -0.17757343      -0.21781969      -0.08348982       0.17119645      -0.21781799      -0.08419607       0.16973300      -0.02528763      -0.01682673      -0.00227692      -0.05816034      -0.00195389      -0.00894780      -0.00919627      -0.01008019       0.09282174
H        2.43895101      -3.34319448      -1.02054906      -0.36732523       0.27560063      -0.02297338      -0.36984958       0.27862228      -0.02340341       0.06347696       0.01143213      -0.01483598       0.03074870       0.03560092      -0.04081080      -0.00147729      -0.05627156       0.01708660
H        2.31420064      -3.24182296       0.74450439       0.29787690       0.14183146      -0.18580447       0.29610800       0.14063130      -0.18375071       0.06072648       0.00305135       0.04025392       0.03416447       0.03048278       0.04114885       0.00262106       0.08305706      -0.05060374
H       -1.05754983       2.56728864      -2.17547607       0.59551238      -0.16156896       0.27971864       0.60238450      -0.16513817       0.27791439      -0.07629915       0.06037897      -0.08420863      -0.01250078      -0.00329264       0.07151478       0.00446003       0.03839444       0.02123935
H        0.50598687       2.17649007      -2.92647147      -0.06952620      -0.11658637       0.90405620      -0.07407794      -0.11829251       0.90431062       0.04560045       0.01136326       0.08361384       0.02737177       0.01586352      -0.01114323       0.07714028       0.02774818      -0.07709775
H        0.42781934       3.20532799      -1.43842840       0.05656019       0.13048807      -0.18044287       0.05560351       0.12761721      -0.17660652       0.03230563      -0.05375754      -0.02949170      -0.05764149      -0.09499309       0.04234500      -0.03872489      -0.05576319      -0.01670351
H        0.22534548       0.80009037       2.60356760       0.22342284       0.37391987       0.16394130       0.22709569       0.37610639       0.16045239      -0.06385863      -0.09804162      -0.06304835      -0.06974495       0.01732193      -0.02513434       0.01269725      -0.00572807       0.01933057
H       -0.59226429      -0.68667948       3.04936051      -0.25359639       0.43770171      -0.42930106      -0.25562311       0.43989489      -0.43211490       0.07986582       0.01300282      -0.03723958       0.00006971      -0.06817759       0.10689599      -0.00004588       0.07504018      -0.05208491
H       -1.54276419       0.79670155       2.53494263       0.60625648      -0.57776333      -0.10807029       0.60877853      -0.58401730      -0.10768632       0.01592709       0.03909643       0.03133865       0.05044205       0.06480524      -0.05238463       0.00020831      -0.03310408       0.09577764
H       -1.31307352      -1.02587867       0.77212417       0.59529587       0.73381929      -0.49521958       0.58614214       0.73500712      -0.49677912      -0.04269659       0.02937103       0.00490890      -0.03218493      -0.05933546      -0.00552493      -0.03815227      -0.00205313       0.02375590
17
Properties=species:S:1:pos:R:3:forces:R:3:MACE_forces:R:3:bec:R:9 smiles="[H:9][C:3]([H:10])([H:11])[O:1][C:4]([H:12])([H:13])[C:6]([H:16])([H:17])[C:5]([H:14])([H:15])[N:2]([H:7])[H:8]" total_charge=0 energy=-7868.9643753020655 config_type="DES370K Monomers" MACE_energy=-7868.969915126866 dipole="-0.11346563912132007 0.13201887799013176 -0.13247459907542578" pbc="F F F"