8
Properties=species:S:1:pos:R:3:forces:R:3:MACE_forces:R:3:bec:R:9 smiles="[H:5][C:4]([Cl:1])([Cl:2])[Cl:3].[H:7][O:6][H:8]" total_charge=0 energy=-40707.74174646496 config_type="DES370K Dimers" MACE_energy=-40707.73403272396 dipole="0.2975941384971796 -0.3359454558749916 0.09333946027575687" pbc="F F F"
Cl       0.00000000       0.00000000       0.00000000      -0.04797354       1.18903832       0.58355590      -0.01882990       1.20816199       0.56123071      -0.31604996      -0.22121736       0.10688446      -0.14981093      -0.40514491       0.18988713       0.12225826       0.31864863      -0.23223471
Cl       0.01419000       2.13203001      -1.92569995       0.46838500      -0.00356583       0.13676199       0.48366570      -0.03708034       0.14686739      -0.28615224       0.13832212      -0.24942330       0.12734219      -0.31237232       0.24769118      -0.17508101       0.19711480      -0.33857482
Cl       2.20292997       1.97096002       0.09595000      -0.51258500      -0.07484230      -0.24200604      -0.52678954      -0.10614766      -0.25410561      -0.44606278      -0.19231646      -0.20451291      -0.23161509      -0.29152366      -0.10198890      -0.28497971      -0.11773357      -0.30387178
C        1.04859006       1.08152008      -0.94617003       0.41668699      -0.47812596      -0.22085666       0.37864744      -0.46190500      -0.18422847       1.05586033       0.35981810       0.38143457       0.31932612       1.07628293      -0.31289023       0.39454815      -0.37046639       0.92652306
H        1.69768000       0.46548998      -1.60122013      -0.82797176       0.47229115       0.32832747      -0.82350911       0.46897810       0.31802494      -0.03799861       0.00383686      -0.02592431      -0.01741077       0.01377826       0.02824457      -0.04966809       0.03054293      -0.02659367
O        0.92862999      -2.00044012      -1.43402994       1.25784218      -1.36943830       0.49329436       1.26660195      -1.34592253       0.47352113      -0.50096349      -0.01586591       0.12159416      -0.02781021      -0.62965905      -0.09338875       0.13261985      -0.20228518      -0.49596175
H        1.42167997      -1.57194996      -0.69812000      -0.62138240      -0.85853935      -0.85331741      -0.61932482      -0.85753771      -0.85660041       0.23591484      -0.13875498      -0.09939873      -0.07015049       0.40635980       0.03277135      -0.09827920       0.06448334       0.18654863
H        1.11915994      -2.96064997      -1.33424997      -0.13069009       1.12070736      -0.22883423      -0.14046173       1.13145315      -0.20470968       0.29549829       0.06641279      -0.03064108       0.05011486       0.14279120       0.00942033      -0.04134125       0.07955296       0.28419896
11
Properties=species:S:1:pos:R:3:forces:R:3:MACE_forces:R:3:bec:R:9 smiles="[H:3][C:1]([H:4])([H:5])[C:2]([H:6])([H:7])[H:8].[H:10][O:9][H:11]" total_charge=0 energy=-4254.480206783336 config_type="DES370K Dimers" MACE_energy=-4254.477238470874 dipole="0.0850435112896335 -0.31328155008192843 0.21781894926912113" pbc="F F F"
C        0.00000000       0.00000000       0.00000000      -0.46236215      -0.35798608       0.33431408      -0.45980320      -0.35823795       0.32588108       0.07705972       0.00461304       0.01722473      -0.00321148       0.09472397       0.00131019       0.01690179      -0.00986968       0.07495596
C       -0.95847005       0.30899999       1.18729997       0.57115614       0.35926260      -0.40456766       0.57536745       0.35952093      -0.40194163       0.09150828       0.00017714      -0.00255043      -0.00343482       0.05570639       0.00200024      -0.01711479       0.00417948       0.09650013
H        0.34312999      -1.04316008       0.10338000       0.01241879       0.43875199      -0.26778271       0.01083956       0.43907921      -0.26737158       0.01110518       0.06373912       0.02821494       0.08837136      -0.14042585      -0.01544392       0.01223817       0.02205122       0.02472984
H        0.88223004       0.66201997      -0.00171000      -0.43618963      -0.27413190       0.04890485      -0.43892495      -0.27394956       0.05029289      -0.09249381      -0.08341132       0.04037853      -0.09853756      -0.01243443      -0.00097182       0.01812702      -0.01628917       0.02455263
H       -0.52048999       0.10498001      -0.96679002       0.27546195      -0.06105598       0.39611728       0.27549197      -0.06140040       0.39429282      -0.00393303       0.01447090      -0.07174955       0.01470019       0.05814068       0.01144881      -0.04000382       0.00293996      -0.14040294
H       -0.38784000       0.20458999       2.12542987      -0.38213179       0.08717292      -0.27112171      -0.38668102       0.08936134      -0.26901607      -0.00450714       0.01026455      -0.09286031       0.01157226       0.04790163       0.01703372      -0.04722469       0.00271058      -0.16870529
H       -1.83478999      -0.35930997       1.23231006       0.48129603       0.30447728      -0.14443165       0.48470718       0.30563334      -0.14391665      -0.08532924      -0.08257334       0.03839240      -0.10860531      -0.01360081       0.02062793       0.02261850       0.00145000       0.03793528
H       -1.31376004       1.35001004       1.10563004       0.02393641      -0.52763541       0.23107752       0.02848347      -0.53208785       0.23032679       0.03134910       0.04844163       0.01490641       0.07660789      -0.10077732      -0.01957416       0.00309207       0.01308415       0.04556637
O       -3.05081987       1.02810001       3.42435002       0.34401456      -1.12816824       0.74192468       0.33774973      -1.12920808       0.75091810      -0.54150307       0.02791370       0.18788115       0.03970880      -0.36140669      -0.13023151       0.19754025      -0.12492683      -0.64774926
H       -3.50232982       0.15476000       3.46536994       0.59612852       1.05998279      -0.01435088       0.59293690       1.06027663      -0.01596191       0.30786823      -0.01733448      -0.05625284      -0.05468158       0.13338281       0.03457658      -0.04277181       0.04609508       0.32090564
H       -2.22286010       0.90380001       3.94134998      -1.02297748       0.09916807      -0.65135538      -1.02016711       0.10101240      -0.65350384       0.20882895       0.01373733      -0.10344609       0.03767154       0.23878658       0.07910138      -0.12310638       0.05852062       0.33133666
20
Properties=species:S:1:pos:R:3:bec:R:9:forces:R:3:MACE_forces:R:3 dipole="-0.08279793364539322 -0.016406092970045957 -0.07893512416609942" total_charge=0 smiles="[H:6][C:3]([H:7])([H:8])[C:4]([H:9])([H:10])[S:2][S:1][H:5].[H:16][C:13]([H:17])([H:18])[C:14]([H:19])([H:20])[S:12][S:11][H:15]" energy=-47695.511907330794 config_type="DES370K Dimers" MACE_energy=-47695.51236421159 pbc="F F F"
S        2.77615023       0.89946002       2.26098990      -0.06159246      -0.03375958       0.12216203      -0.13081991       0.05660673      -0.04957397       0.01093886      -0.03203755      -0.16928682      -0.04844882       0.20469323      -0.06121173      -0.05693123       0.19847077      -0.05440158
S        1.12853992       0.13507000       1.30998993       0.06625506       0.04595630       0.02327695       0.17296983      -0.09403868       0.14058304       0.01977346       0.08102279      -0.03621205      -0.01108381       0.01222229       0.04759624      -0.01145017      -0.00201375       0.03861682
C        0.25994000      -0.92804002       3.75367999      -0.02142077      -0.04257531       0.04383035       0.02590323       0.05887580       0.01657630       0.02398004       0.05290388      -0.01690713       0.07481506      -0.22269970       0.18807221       0.06798609      -0.22037973       0.19245443
C       -0.09735000       0.05385000       2.64988995       0.08109507      -0.00020319      -0.13978834       0.00658115       0.11612558      -0.08355808      -0.12717756      -0.09635521       0.18307443      -0.42544439       0.33574106      -0.00548110      -0.42330022       0.33258744      -0.00541281
H        2.51489997       2.21147012       2.07967996      -0.02007057       0.04096897      -0.05663940      -0.04004334      -0.08292402      -0.00875104      -0.07394946      -0.00338794       0.09394651       0.04850841      -0.19480416       0.04025943       0.05621089      -0.19547467       0.04558923
H        1.21325994      -0.64090997       4.22840023      -0.03052386      -0.00279896      -0.08836538      -0.03751969       0.04056827      -0.02577019      -0.04846951      -0.00943721       0.05017051      -0.44221361      -0.15268118      -0.18157712      -0.44245215      -0.15138235      -0.18482950
H        0.36336002      -1.94735003       3.34511017       0.06915999       0.03043970      -0.00715477       0.01392819      -0.09106789      -0.01147074      -0.00866857      -0.07876549       0.02092611      -0.02663166       0.44589646       0.20609075      -0.02221490       0.44744420       0.20525495
H       -0.52859998      -0.93647003       4.52487993      -0.02341751      -0.00466128       0.10722510      -0.00633206       0.04244537       0.03980787       0.11617720       0.05557000      -0.06933196       0.34772518      -0.00285308      -0.27811646       0.34782390      -0.00450770      -0.27425133
H       -1.02541995      -0.24936000       2.12817001      -0.08571005      -0.03578311      -0.04179998      -0.04900892       0.05707712       0.00293958       0.00029824       0.03884329      -0.01877887       0.41489867       0.15768671       0.26165973       0.41938800       0.15965992       0.25742891
H       -0.25161001       1.07678998       3.04392004       0.02609550       0.00254061       0.03731222       0.04518493      -0.10389642      -0.02079450       0.08694640      -0.00866091      -0.03670651       0.06579907      -0.57145670      -0.21877087       0.06945320      -0.57132521      -0.21511133
S        0.23194000       6.93804979      -0.26049999      -0.01935396      -0.05655129       0.06793645      -0.13549445       0.04877635       0.00036751      -0.02044660      -0.02701439      -0.21314949       0.06304979      -0.21383189       0.03016573       0.06415724      -0.19994710       0.02010154
S        2.11893010       7.69212007       0.00268000       0.04222676       0.09153501       0.01526111       0.23093090      -0.09985979      -0.00252012       0.01852574      -0.03385776      -0.01475561      -0.01725832       0.00270827      -0.04809674      -0.01259151       0.01032378      -0.04429660
C        3.00345993       6.39302015      -2.31749010       0.02828606       0.00061869       0.04200058      -0.03488477       0.01763018       0.00751759       0.07444571      -0.03891490      -0.04087808       0.07267818      -0.24935897      -0.06841187       0.07553161      -0.25869707      -0.08760436
C        2.75387001       7.75845003      -1.69863999       0.05013997      -0.06455842      -0.10786234      -0.07097685       0.09534168       0.01966223      -0.11195219       0.03437415       0.23374781       0.05545026       0.48812878      -0.26074223       0.04820173       0.48895166      -0.24463436
H        0.51787001       5.62096023      -0.18300000      -0.05715535       0.03784730      -0.00693101      -0.03813214      -0.07793200       0.01184510      -0.03656203      -0.01900275       0.12960521      -0.05154029       0.20472452      -0.02088333      -0.05327029       0.20457044      -0.01816282
H        3.71731019       5.81547975      -1.70635998      -0.00057021       0.06834047      -0.04683030       0.05055689      -0.01227623       0.01114168      -0.09187324       0.05691938       0.00956529      -0.31864597       0.22381857      -0.28343236      -0.32162244       0.22741278      -0.27891715
H        3.42033005       6.50624990      -3.33238983       0.04556020       0.01124470       0.08484040       0.02218805       0.03683156      -0.01778813       0.09622119      -0.01189744      -0.11863737      -0.20035107      -0.09383572       0.39538040      -0.19866012      -0.09669633       0.39146083
H        2.05980992       5.82606983      -2.38599014      -0.04821220      -0.08710431      -0.03290954      -0.04229609      -0.00399292      -0.01178937      -0.00863424       0.01360167       0.08983343       0.43422985       0.22377321      -0.01273235       0.42973646       0.22648289      -0.01151497
H        3.69477987       8.33321952      -1.59970999      -0.05373289      -0.08872890       0.02210214      -0.04544041       0.00733376      -0.03174547       0.05738250      -0.01776063       0.00348024      -0.44112806      -0.26366144      -0.06770026      -0.44500357      -0.25766005      -0.06538489
H        2.05281997       8.36244010      -2.30625010       0.01223122       0.08634705      -0.03711378       0.06284162      -0.01032476       0.01306117       0.02320391       0.04343818      -0.08007677       0.40407015      -0.33540487       0.33585995       0.40900749      -0.33781991       0.33361500
18
Properties=species:S:1:pos:R:3:forces:R:3:MACE_forces:R:3:bec:R:9 smiles="[H:6][C:1]([H:7])([H:8])[N+:5]([C:2]([H:9])([H:10])[H:11])([C:3]([H:12])([H:13])[H:14])[C:4]([H:15])([H:16])[H:17].[Cl-:18]" total_charge=0 energy=-18361.601364199345 config_type="DES370K Dimers" MACE_energy=-18361.67923250329 dipole="1.8625645324356748 -0.9598922636878954 0.9004957763368102" pbc="F F F"
C        3.97323990       2.88702989       1.34289002       0.44662843       1.23857656      -0.16833686       0.56308427       1.23826100      -0.12745152      -0.17915345       0.16725362      -0.16286230       0.14812648       0.37186352      -0.00308645      -0.15785940       0.00356831       0.10649237
C        4.92100000       0.82130998       2.21349001       0.63533312      -0.32728524       0.30789746       0.60031585      -0.30904412       0.29043684       0.32052990      -0.10606279       0.09947571      -0.10604540       0.16941973      -0.05129255       0.09945941      -0.05126968       0.16282185
C        2.57151985       1.33467006       2.58738995      -0.85871017      -0.20675417       0.99103912      -0.79522425      -0.26594343       1.07889977       0.07559076       0.15916778      -0.28962707       0.16765890       0.07210412       0.08968761      -0.30799991       0.09503919       0.15143002
C        3.34959006       0.75134999       0.35630000      -0.13447020      -0.75041030      -1.08667609      -0.04140334      -0.83159221      -1.08327570      -0.12061413       0.21278781      -0.05342530       0.22345517       0.10033967       0.17416162      -0.04009933       0.16215492       0.31958642
N        3.70384001       1.44859004       1.62502003       0.16948194      -0.08732283       0.08224723       0.29564993      -0.15243085       0.14292073      -0.33789409      -0.06286312       0.05898747      -0.06287929      -0.42751408      -0.03038563       0.05900836      -0.03044122      -0.43142233
H        4.23715019       3.41715002       2.27344012      -0.09719075      -0.51475300      -0.30114346      -0.12245093      -0.53217427      -0.32983062       0.07658842      -0.05351542      -0.02353433      -0.01998074       0.01968185      -0.00575070      -0.05214802      -0.06194156      -0.07109418
H        3.08048010       3.36564994       0.90640998       0.14584495      -0.54499531       0.19324044      -0.02084469      -0.64144765       0.16044123       0.44724625      -0.00789747       0.13983492      -0.02940565       0.05956655      -0.01215506       0.14543086      -0.00467197       0.10417003
H        4.80987024       2.98778009       0.63120002      -0.33281038      -0.33813499       0.37414450      -0.37234316      -0.34484177       0.38662574      -0.02582336      -0.03603875       0.09105833       0.03230173       0.02494147      -0.02140108       0.09304128      -0.00073870       0.02604324
H        5.19606018       1.32716000       3.15427994      -0.29712549      -0.14011370      -0.50950004      -0.32129411      -0.13265417      -0.52739628       0.05373973       0.02973497      -0.00969635      -0.00319966       0.03653599      -0.07688778      -0.05078274      -0.03979365      -0.01154482
H        4.73701000      -0.24484999       2.42808008      -0.08939037       0.57138294      -0.18051974      -0.10998792       0.59094258      -0.19288131       0.03708186      -0.05626925      -0.00559566       0.00280166      -0.04205164       0.03687857      -0.02103924       0.01628850       0.08367483
H        5.76877022       0.89778995       1.51203012      -0.55622052       0.05433100       0.23407466      -0.58488736       0.06510510       0.22880905      -0.00454700       0.01872061       0.02258951      -0.00738243       0.08068995       0.03623494       0.07910041       0.01973690       0.00256812
H        1.66228998       1.79506004       2.16553998       0.56338242      -0.08253929      -0.17738341       0.55882117       0.00039632      -0.35416484       0.19207035      -0.12203639       0.17578076      -0.11248186       0.15415464      -0.14949503       0.15512592      -0.14346826       0.26476652
H        2.35992002       0.27454000       2.80637002       0.35684825       0.42555751      -0.23813538       0.35574010       0.46146925      -0.25986519       0.06658378       0.01806802       0.02245772      -0.02541312      -0.09240133       0.04473084       0.05147987      -0.00392560       0.05096978
H        2.81897020       1.84654999       3.53256988       0.16783702      -0.22110333      -0.53693393       0.15544071      -0.22442595      -0.57682916       0.02709380      -0.04973417      -0.06098207      -0.05129977       0.04987827      -0.06807228       0.00749991      -0.04789046      -0.05180418
H        2.44950008       1.20488000      -0.09176000       0.33167039       0.09128527       0.48703661       0.23702276       0.24167680       0.56834261       0.31557615      -0.22434825       0.01675834      -0.21238592       0.23631833      -0.00958228       0.03168766      -0.02306840       0.05916229
H        4.17889023       0.82700998      -0.36697999      -0.21473527       0.06607874       0.56087852      -0.24862724       0.07863497       0.58220059      -0.04715362      -0.01108709       0.09777214      -0.05408169       0.06468931      -0.01952701       0.04092404      -0.02417579       0.00760568
H        3.14712000      -0.31564000       0.54907000       0.20968119       0.53621697       0.18421885       0.20155399       0.57739651       0.18252256       0.09475266      -0.01371716       0.01019508      -0.02753796      -0.08282645      -0.00055009      -0.00383389       0.06810979       0.01325043
Cl       0.94625002       2.86974001       0.29179001      -0.44570641       0.23000419      -0.21580701      -0.35056580       0.18067190      -0.16950450      -0.99226116       0.13802663      -0.12955747       0.13804407      -0.79554864       0.06676470      -0.12953242       0.06675488      -0.78708626
14
Properties=species:S:1:pos:R:3:forces:R:3:MACE_forces:R:3:bec:R:9 smiles="[H:4][C:1]([H:5])([H:6])[C:3]([H:10])([H:11])[C:2]([H:7])([H:8])[H:9].[H:13][O:12][H:14]" total_charge=0 energy=-5324.825968973344 config_type="DES370K Dimers" MACE_energy=-5324.826067554478 dipole="0.04357535653630227 -0.3492501764976539 0.199087401226707" pbc="F F F"
C        0.00000000       0.00000000       0.00000000       0.08444091       0.22709777       0.32671087       0.08301466       0.22348076       0.33193479       0.01236282      -0.02446855      -0.02406086      -0.02233169       0.08922048      -0.04414220      -0.00827216      -0.02889268       0.09539995
C        2.08545994       1.34753001       0.75879997       0.25003433      -0.78451003      -0.40463962       0.24461105      -0.78724476      -0.40069005       0.00425272       0.00409123      -0.01348093      -0.02992495       0.05046602      -0.00309796      -0.02061832      -0.01730844       0.08451837
C        0.57770002       1.33333993       0.53964996      -0.73216028       0.56934974      -0.31964151      -0.72377714       0.57049766      -0.33457035       0.17578287       0.00488825       0.01527457       0.01025569       0.10030645       0.00893304      -0.00545325       0.00549379       0.14201621
H       -1.07176995       0.16027001      -0.20550999       0.44336537      -0.26713891       0.03124906       0.44538150      -0.26740963       0.02582765      -0.14232507      -0.01668532      -0.05012720       0.01867353       0.02321866      -0.00230668      -0.04720021      -0.01092153       0.05306265
H        0.10167000      -0.85097998       0.69433999       0.02497421       0.38702965      -0.22817605       0.02911010       0.38445181      -0.23465301       0.05317624       0.01817188      -0.03160911      -0.01470324      -0.10781476       0.07116927      -0.02212397       0.09949500      -0.03377764
H        0.50528002      -0.25589001      -0.94648004      -0.23101905       0.02330470       0.37225880      -0.23622411       0.02487802       0.37698438       0.01585572       0.02752215       0.09628308      -0.00478796       0.00533312      -0.03065244       0.06712911      -0.06185491      -0.09660936
H        2.57130003       1.41925001      -0.22883999       0.09120539      -0.12576665       0.50278431       0.08720933      -0.12876509       0.50396847      -0.03105791      -0.00199456       0.04442200      -0.00302646       0.06126150       0.00036472       0.10838648       0.00743717      -0.10950487
H        2.32474995       0.36446002       1.19802999       0.35440110       0.44025464      -0.08931366       0.35805951       0.44291749      -0.09033346       0.01665230       0.01232489      -0.01858016       0.07556903      -0.10967718       0.08411330      -0.03262155       0.06412601       0.01812567
H        2.49835992       2.13459992       1.41196990      -0.49873839      -0.25815901      -0.32627252      -0.49904168      -0.25732186      -0.32620378      -0.01836286      -0.05823094      -0.04152675      -0.06677723      -0.03441558      -0.08740999      -0.05626525      -0.08945929       0.00527632
H        0.08042000       1.67820000       1.46659994      -0.02928684      -0.38975654      -0.54067932      -0.03028687      -0.38461603      -0.53439290      -0.05336154       0.00553737       0.05918707       0.01334558       0.00447923      -0.07344015       0.08046041      -0.08236436      -0.09233781
H        0.29708001       2.03128004      -0.27249998       0.24141464       0.17716165       0.67815415       0.24294249       0.17971263       0.68070941      -0.03089895       0.02847977      -0.03909280       0.02390918      -0.08687784       0.07700054      -0.06726526       0.11543683      -0.06496705
O       -2.85074997      -1.43576992       4.67125988       0.20144450      -1.20931838       0.66726250       0.19946158      -1.20806095       0.66685423      -0.63277913      -0.09383433      -0.05156557      -0.08992615      -0.37850626      -0.06830939      -0.05518784      -0.06558949      -0.44467218
H       -3.11388993      -1.66609001       5.59103012       0.34128745       0.23765544      -1.13248164       0.34149261       0.23630618      -1.13195863       0.32561878       0.01815386       0.03006062       0.00123158       0.23824579       0.09575300       0.04723306       0.05754073       0.16132270
H       -2.41545009      -2.24831009       4.32697010      -0.54140703       0.97317015       0.46299838      -0.54195303       0.97117377       0.46652326       0.30518188       0.07603384       0.02482058       0.08852799       0.14484998      -0.02796759       0.01183463       0.00686665       0.28216727
8
Properties=species:S:1:pos:R:3:forces:R:3:MACE_forces:R:3:bec:R:9 smiles="[H:3][S:1][S:2][H:4].[H:7][S:5][S:6][H:8]" total_charge=0 energy=-43413.340939252776 config_type="DES370K Dimers" MACE_energy=-43413.3244890698 dipole="0.31253121009421403 0.16379244832147924 -0.4285979945323449" pbc="F F F"
S       -0.63566994      -1.76725996       3.63882994       0.54417512      -0.53176978       0.44603581       0.54378362      -0.52597552       0.47764502       0.15197308       0.02586879       0.14118200       0.05820986      -0.05132243      -0.14220148      -0.05262025      -0.11285082      -0.18815122
S        0.67861998      -2.58594990       5.09583997      -0.33910959       0.56522619      -0.68821638      -0.34524379       0.57205402      -0.69306140      -0.13350585      -0.06213516      -0.07701327      -0.12085214      -0.05430121       0.02989001       0.09180571       0.01508370       0.14541464
H        0.14847000      -0.88391995       2.98512006       0.12316406      -0.16126188       0.36630389       0.12216790      -0.18812889       0.36598274      -0.04886133      -0.05381823      -0.01571256      -0.02185590       0.06586231       0.11905508      -0.02540673       0.11697959       0.03659227
H        1.39456999      -3.46428013       4.36205005      -0.32859885       0.15508257      -0.10404982      -0.33091694       0.16539111      -0.10989236       0.03960951       0.10184318      -0.01788004       0.09197219       0.04858755      -0.01387306      -0.00121596      -0.03817066      -0.03374826
S       -0.92427003      -5.05271005      -0.88575995       0.01612197      -0.71025455      -0.59180354       0.02298665      -0.70722844      -0.58965827      -0.08799750       0.02880100       0.18535104      -0.01218080       0.14264644       0.03579126       0.06739185      -0.14601977      -0.08032706
S       -0.29609001      -3.61077023       0.37540999       0.00780635       0.74072549       0.46609758       0.02531773       0.77093132       0.44477673       0.04806047       0.05830466      -0.15813036       0.06686913      -0.11155221       0.03506169      -0.03429094       0.24523445       0.17824934
H       -1.52963996      -4.38068962      -1.88795995       0.12769839       0.22061257       0.28845820       0.13039111       0.21906249       0.30020806       0.08631692      -0.00727770      -0.10115341       0.01992245      -0.06461485       0.01804627      -0.11134731      -0.01943962      -0.05245778
H        0.90588999      -3.24583006      -0.11912000      -0.15020996      -0.27653087      -0.18611485      -0.16848628      -0.30610608      -0.19600053      -0.05536482      -0.09140633       0.04331431      -0.08233862       0.02440230      -0.08261983       0.06522507      -0.06164459      -0.00679338
15
Properties=species:S:1:pos:R:3:forces:R:3:MACE_forces:R:3:bec:R:9 smiles="[H:5][C:1](=[C:2]([H:7])[C:4]([H:11])([H:12])[C:3]([H:8])([H:9])[H:10])[H:6].[H:14][O:13][H:15]" total_charge=0 energy=-6361.814544990523 config_type="DES370K Dimers" MACE_energy=-6361.809307210713 dipole="-0.33505629576224066 -0.07530541210589131 -0.19286514193624227" pbc="F F F"
C       -0.10120000      -1.07175004       3.31728983       1.09531872      -0.98131777      -1.10462907       1.10515818      -0.98243245      -1.10140523      -0.23254483      -0.13385453      -0.03069947      -0.10152444       0.04336626      -0.02140230      -0.06692029      -0.01210098      -0.16816302
C        0.57679999      -1.03744995       2.13689995      -1.20600221      -0.05127551       2.54735070      -1.20894046      -0.06406860       2.55408985      -0.06850746      -0.05794937      -0.17980803      -0.02574042       0.14242073      -0.19899987      -0.18178162      -0.07711497       0.08210506
C        0.00000000       0.00000000       0.00000000      -0.72890028       0.07827253      -1.29653944      -0.73135074       0.07608128      -1.28983433       0.08325527      -0.01322294      -0.00718645      -0.03704764       0.07701849       0.08041795      -0.02922637       0.00061807       0.07313481
C        0.60987001       0.19718000       1.34051991       1.06987262       0.89291862       0.28487800       1.07013496       0.89925463       0.28028941       0.16080647       0.00949016       0.05093383       0.01659350       0.04187497       0.03953261       0.05959949       0.05502077       0.02975430
H       -0.06335000      -1.99600994       3.90511012      -0.20134084       0.46083891      -0.10870044      -0.20663264       0.45918999      -0.11103671       0.10733417       0.03810452       0.03000827       0.01719328      -0.05812772       0.10336416       0.04521235       0.07050262       0.00101886
H       -0.65408999      -0.22347000       3.73676014       0.32096467      -0.32870278      -0.38451309       0.31866836      -0.32765328      -0.38017611       0.08119783       0.05597274       0.04662649       0.08083297      -0.03572696      -0.03258139       0.03677527       0.00639423       0.06142480
H        1.14180994      -1.90559995       1.77266001      -0.35394236       0.33466929       0.21794554      -0.35394979       0.33671895       0.21611686       0.05353943       0.06845568       0.06763613       0.06244884      -0.04817199      -0.00418115       0.05680079      -0.03189597       0.04581360
H        0.50317997      -0.78822005      -0.58490997      -0.21770906       0.30683806       0.23279571      -0.21460396       0.30921954       0.23702392       0.00751285       0.07351186       0.04646635       0.06094043      -0.04559072      -0.10873517       0.00811126      -0.06331355      -0.01386413
H        0.02747000       0.93889999      -0.57819998      -0.06446499      -0.45770195       0.08663167      -0.06501880      -0.45449415       0.08403033       0.06626387      -0.00915428      -0.01479746      -0.00074187      -0.09570886       0.12927930      -0.00768030       0.08626147      -0.07314802
H       -1.05350995      -0.29076001       0.14894000       0.36642703       0.07779041      -0.32659523       0.36709284       0.07843982      -0.32826771      -0.12369332      -0.04502606      -0.02409039      -0.05460187       0.04181211      -0.02408350       0.04240275       0.00405978       0.03137044