45
Properties=species:S:1:pos:R:3:forces:R:3:MACE_forces:R:3:bec:R:9 smiles="[H:42][C@:17]([C:6](=[O:2])[N:10]([H:24])[C@@:18]([H:43])([C:7](=[O:3])[N:8]([H:22])[C:12]([H:28])([H:29])[H:30])[C@:20]([H:45])([C:15]([H:37])([H:38])[H:39])[C:16]([H:40])([H:41])[C:13]([H:31])([H:32])[H:33])([C@@:19]([H:44])([C:14]([H:34])([H:35])[H:36])[O:4][H:21])[N:9]([H:23])[C:5](=[O:1])[C:11]([H:25])([H:26])[H:27]" total_charge=0 energy=-26563.520165622536 config_type=Dipeptides MACE_energy=-26563.51266239598 dipole="-0.015557468960776342 0.3084871880016555 0.7389646143429751" pbc="F F F"
O       -0.05943427      -2.82895801      -0.17632011       0.48671757       1.13792091      -0.68488207       0.46849340       1.15083698      -0.68473569      -1.16976042      -0.08681247       0.24580308       0.13620062      -0.81059222      -0.05158923       0.17513656      -0.00294612      -0.50877907
O        2.76228716       0.58097566       0.68988659      -0.25211910       0.42302302       0.98114658      -0.23121387       0.42726412       1.02583403      -1.15961757       0.20342182       0.07237622      -0.05151129      -0.49766704      -0.16652415      -0.21600676      -0.16274851      -0.66376647
O       -0.65900669       3.71996142       0.16733291      -0.25757149      -0.06456413      -0.97585074      -0.23109981      -0.08139692      -0.95593142      -0.53651322       0.06813453      -0.36714826       0.13685810      -0.83184926       0.08786891      -0.22997685      -0.06507751      -0.98017923
O        3.87675478       0.00576987      -1.92922852       3.30127149      -1.07469692       1.20476647       3.31687032      -1.07867935       1.22870688      -0.96105733       0.02825544      -0.05287318      -0.10118721      -0.51133114       0.12177354      -0.08142685       0.12136354      -0.59171282
C        1.13570263      -2.90519926      -0.43883858      -0.14560351      -1.80462692       0.68282931      -0.15279462      -1.82702129       0.70521650       1.45107093       0.41768429      -0.45478143       0.11790162       1.67120918      -0.21720163      -0.27215894      -0.37838685       0.38107777
C        1.69540777       0.42244591       0.11729743       1.52129614       0.21187164      -2.00939078       1.49154161       0.17089432      -2.01532034       1.60403202      -0.65792019      -0.30909697      -0.43462393       0.65963805       0.48013228       0.15805005       0.40220096       0.67650919
C       -0.01904527       3.47522738       1.17550024      -2.07127355      -3.94570187      -2.97534561      -2.10690708      -3.93694612      -3.00437378       0.43694775       0.01084856       0.56875992      -0.00348709       1.47944466       0.29739583       0.43655296       0.33294325       1.15123497
N        0.27582681       4.41568854       1.98850395       2.45206406      -0.63007977       2.96010159       2.46671676      -0.61283907       2.96348383      -0.44632972      -0.17167642      -0.17271166      -0.04400537      -1.15822844      -0.49747878      -0.09368656      -0.22185812      -0.51670866
N        2.01005330      -1.95295117      -0.79975221       0.36167486       1.88619789       0.24425729       0.38209753       1.92726906       0.23851622      -0.58931322      -0.50064313       0.25751082      -0.32816715      -1.24145408       0.19196773       0.28267008       0.34765539      -0.58341919
N        0.56574410       1.17456885       0.26743104       0.26482099      -0.61975908      -1.17918255       0.25628307      -0.60909105      -1.17995245      -0.83601651       0.44831869       0.39048036       0.53235260      -0.82033187      -0.19976970       0.25922146      -0.20094375      -0.64732362
C        1.81690743      -4.24304531      -0.22195647       0.70618152      -2.10937837      -1.84549218       0.70628538      -2.11279760      -1.83553391       0.10336914       0.09054342      -0.05285380       0.14864929      -0.34458985       0.07312740      -0.07333168       0.18674637      -0.04106003
C       -0.18112324       5.71766235       1.85157003       1.67017888       1.61440748       1.83398360       1.66392453       1.62485339       1.84711981       0.21141497      -0.02258750      -0.00352450      -0.05364498       0.57529589       0.08709258      -0.01811052      -0.00443743       0.04035202
C       -1.04140327      -1.23234520       3.50184824      -1.96781243      -1.34692042      -2.63610980      -1.97044093      -1.36578448      -2.63612248       0.05357763       0.03878272      -0.01877230      -0.01274365      -0.09962633       0.05691880       0.03582426       0.05352710       0.05088882
C        2.15336265       1.29711904      -2.68475959      -0.19754925      -1.32902052      -2.45894045      -0.16371743      -1.32568712      -2.44649064       0.02132848      -0.01166545      -0.02212911       0.07504945      -0.17524630       0.07955504      -0.01513090       0.05693580       0.06006865
C       -1.10967216       1.91647389       3.48286416       0.45154635      -1.20222553       1.00154688       0.44512098      -1.20549340       0.99943820       0.02493738       0.03589948       0.11231859      -0.01740211       0.01935142       0.01054199       0.07514849       0.04249302      -0.01672137
C       -0.13175235      -0.38292459       2.73092773       4.24864971       3.25397760      -0.84135158       4.26144863       3.26104219      -0.83052237       0.14909859      -0.02292050       0.07907646       0.01215520       0.21219877      -0.02336380       0.04660085      -0.00519023       0.09970860
C        1.72213365      -0.54681871      -1.11711250      -3.24322268      -1.95792544       0.83477551      -3.23243175      -1.94705229       0.78614509      -0.01462015      -0.03438827       0.07918057      -0.00050949       0.57814558      -0.06230170       0.03440872      -0.23256472       0.04955128
C        0.33207678       1.95534041       1.44372674      -0.46670583      -0.11788796      -0.04712007      -0.47793187      -0.16412663      -0.06449035       0.12258375       0.01122104      -0.11171478      -0.13912783       0.23175341       0.20672433      -0.29015830       0.27652520       0.40044563
C        2.59891083      -0.17201171      -2.31805203      -2.88443594       4.55850844       1.01054028      -2.90286774       4.57486323       1.00144328       0.79930698      -0.05669940      -0.00115773       0.09306528       0.26781243      -0.20207083       0.02231730      -0.11477832       0.48987840
C       -0.63457844       1.11639353       2.25826397       0.05875301      -0.90750617       3.10769780       0.06380314      -0.89232953       3.12255669       0.07288286       0.07184515      -0.05572222       0.07302956      -0.09797354       0.03029402      -0.02127743      -0.02777611       0.11152276
H        3.89197447       0.48178177      -1.07087789      -0.05806875      -0.48146103      -0.67894250      -0.08035253      -0.51490617      -0.71638348       0.39726848       0.03287004      -0.03932276       0.04734819       0.28986616      -0.07330276      -0.10437071       0.00326368       0.41981613
H        0.58336316       4.20369651       2.93381908       0.12148138      -0.21717078      -0.62265589       0.12758475      -0.22568172      -0.61953054       0.27216231       0.10545445       0.01644979       0.05069271       0.16041316       0.01332328      -0.04810007       0.02142633       0.16233071
H        2.99039938      -2.09489081      -0.65645526       0.17071690      -0.59310182      -0.09282278       0.16937056      -0.59404640      -0.09508458       0.21337665       0.06315453      -0.03185814      -0.03915788       0.16483133       0.02598042      -0.08509964      -0.02070424       0.28421840
H       -0.28125278       0.84193205      -0.18859152       0.55899068       0.20489431      -0.00782107       0.57941445       0.18094150      -0.01186141       0.18833769      -0.02506571      -0.04052261      -0.01162230       0.22104004      -0.06746886       0.03648236      -0.08596437       0.23320169
H        2.93858459      -4.30934331      -0.57574866      -2.35573420       0.05582711       0.90400564      -2.35536672       0.04671109       0.90170875      -0.11132334       0.05377372       0.04378848      -0.02338118       0.02157864       0.01575751       0.04894509      -0.00780265       0.06514949
H        1.66403272      -4.43027160       0.80600643       0.67747033      -0.00811190       1.47442991       0.68569124      -0.01232317       1.48483279       0.03840281       0.03910730       0.04796875       0.02462048       0.06166834      -0.01349560      -0.00521758       0.02626979      -0.04841273
H        1.20875981      -5.17903755      -0.58832357       1.10388630       2.14301769      -0.15216808       1.10894681       2.15274737      -0.15845456       0.00442183      -0.06007849      -0.04810897      -0.03448013      -0.05360102      -0.04828801      -0.01518942      -0.07051392       0.09062709
H       -0.49397717       6.09956553       0.94465746       0.22345405       0.17648981      -2.16455534       0.22179071       0.18389592      -2.16741283       0.11280363       0.02011809      -0.02302331      -0.00196898       0.05968270      -0.02540200      -0.00546902       0.02974464       0.03963117
H        0.57541801       6.30005314       2.38078882      -0.12535517       0.70844368      -0.63539716      -0.11938375       0.70945648      -0.63745949      -0.02005156      -0.10480000      -0.07158740      -0.02078235      -0.07385951      -0.04136946      -0.07263836      -0.10248029       0.03942941
H       -1.00179241       5.77526762       2.44912269      -2.75698067       0.59408799       1.76899774      -2.76555427       0.60460144       1.76509020      -0.06911613       0.09864273       0.11275527      -0.03251815      -0.05541326      -0.00813188       0.10317682      -0.02264632       0.00521385
H       -1.35110495      -0.93914411       4.48408892       0.28900287      -0.00492939       0.49289837       0.28892049      -0.01120652       0.49079373       0.04533218      -0.01876413       0.05949541       0.00536933       0.05205872      -0.05828575       0.05963084      -0.02091416      -0.06359935
H       -1.94208310      -1.23669205       2.82740070       0.10954976      -0.34327616       1.00800978       0.11088395      -0.34253805       1.00998865      -0.10929145      -0.03957230      -0.05859896       0.02791013       0.07590504       0.01319937      -0.12130926      -0.00497324      -0.02532664
H       -0.63338981      -2.25530097       3.36070587      -0.43658157       0.48851376       0.95144560      -0.44180857       0.49031940       0.95663425       0.05053810       0.04363475       0.01767590       0.02605572      -0.10220044       0.04516596       0.01136417       0.00854265       0.06411544
H        1.07414748       1.32123544      -2.72367189      -0.36081301       0.46883603       0.16549682      -0.37331635       0.46561308       0.16539416      -0.13356883       0.02612176       0.00327716      -0.02862621       0.04141558       0.00778909       0.01193393      -0.00539847       0.07272351
H        2.47987165       1.45779814      -3.77944181      -0.09518033       0.33298515       1.96535947      -0.10214607       0.33369959       1.97147259       0.05095676      -0.02366511       0.07549157      -0.01005769       0.01698533       0.01480773       0.07595399       0.07932066      -0.14887852
H        2.56894614       1.97590639      -1.93928955      -0.15514856       0.12887024      -0.48175153      -0.16366456       0.13138898      -0.50127043       0.03873884      -0.02773874      -0.06695792       0.00932867       0.00762171      -0.02005665      -0.04929274      -0.06203587      -0.02077861
H       -1.61754725       1.26308116       4.19600536      -0.26829572      -0.07981653      -0.28660768      -0.26038492      -0.06546580      -0.28131271       0.00620371      -0.05001881       0.07759536      -0.07191494      -0.00273027       0.09036635       0.08828329       0.04478208      -0.04771835
H       -0.21982298       2.18738701       4.09551670      -0.47075472       0.45436673      -0.60617187      -0.47853282       0.44485855      -0.59929639      -0.08602045      -0.08004176      -0.09562316      -0.00933011       0.01666214      -0.04848413      -0.04907617      -0.07479909       0.01500878
H       -1.80188821       2.73078825       3.30008318       0.33958269       0.30303157      -0.22093959       0.32813429       0.29983904      -0.21831810       0.02566086       0.10584586      -0.02486758       0.08790450      -0.07466544      -0.02517568      -0.01711966      -0.01711280       0.03172704
H        0.80314722      -0.19141648       3.35848834      -0.75795699      -0.33785433      -0.95192801      -0.75540187      -0.33318433      -0.95035771      -0.14584892      -0.02712141      -0.08206587      -0.07492344      -0.02818531      -0.01293556      -0.08188112       0.01226384      -0.02479709
H        0.20053908      -0.89295612       1.76676633      -0.49918298       0.45628125       1.45131209      -0.48284153       0.46075104       1.42686583      -0.01818034       0.03800420       0.05365464       0.03718797      -0.00963289      -0.03207468       0.04456394      -0.01025330      -0.05962693
H        0.62305019      -0.58941231      -1.24330375       0.51595439      -0.06102522      -1.41548657       0.52139470      -0.04633403      -1.42204905      -0.08085799       0.05219453      -0.04553475      -0.00457539       0.05780343       0.01690448       0.02303717       0.01756951       0.06744638
H        1.25709387       1.96237161       1.91088941       1.83235214      -0.03743511       1.35238175       1.82640771      -0.04046875       1.35842282       0.02772359      -0.04704012      -0.07033609      -0.00345920       0.02899806       0.00869673      -0.01633180      -0.01745222       0.01929754
H        2.47119143      -0.76128409      -3.20154807       0.15330102      -0.94180248       0.03205379       0.15411886      -0.94067623       0.04184791       0.00043963       0.01240077       0.03509364      -0.02670783      -0.00890518      -0.03612875       0.00225666      -0.07913673      -0.06148628
H       -1.42758701       0.70511591       1.71787610      -1.79409383       0.61868716      -1.45779812      -1.79708480       0.64422922      -1.45924753      -0.03564077      -0.04755936      -0.02759868      -0.06227211       0.02537341      -0.04333446      -0.04906260      -0.04337930      -0.07008035
40
Properties=species:S:1:pos:R:3:forces:R:3:MACE_forces:R:3:bec:R:9 smiles="[H:38][C@@:17]1([C:15]([C:14]([C:13]([N:9]1[C:7](=[O:3])[C@@:18]([H:39])([C@@:19]([H:40])([C:16]([H:35])([H:36])[H:37])[O:4][H:20])[N:10]([H:22])[C:5](=[O:1])[C:11]([H:23])([H:24])[H:25])([H:29])[H:30])([H:31])[H:32])([H:33])[H:34])[C:6](=[O:2])[N:8]([H:21])[C:12]([H:26])([H:27])[H:28]" total_charge=0 energy=-25463.0985117937 config_type=Dipeptides MACE_energy=-25463.122239681954 dipole="0.20686428814113808 0.667895137273698 -0.004502872871927789" pbc="F F F"
O        2.81764724       0.51406556       1.84189465       0.31255407       0.93802106       1.40550670       0.31453510       0.97691975       1.40769012      -0.73374234       0.01249664       0.04569466      -0.14757479      -0.67670533      -0.23523908      -0.16802501      -0.34271783      -0.85309668
O        0.77367165       1.94928100      -1.52892444      -0.52854236       0.77492126       2.48521598      -0.50842477       0.77917053       2.46674395      -0.64193551      -0.07478105       0.09351127      -0.14352519      -0.54843303      -0.11544373      -0.11414252      -0.27251234      -0.94482399
O       -1.45073114      -1.18405578      -0.34541992      -0.57358029      -0.34909443      -0.32549114      -0.57566719      -0.34414603      -0.33774791      -0.67529672      -0.31190224      -0.20964007      -0.07749152      -1.27415499      -0.03521249      -0.23924424      -0.25970716      -0.54799248
O       -1.06310484      -1.67217634       2.69805267      -1.46954615       0.62951606      -0.11008747      -1.46904467       0.61766332      -0.13356772      -0.85569115      -0.01349669       0.24121055       0.00238186      -0.56010409       0.10666953       0.32595337       0.17820232      -0.51176452
C        2.82727291      -0.14157019       0.83269372      -0.43965045       0.09672738      -0.27701557      -0.45297257       0.06439527      -0.26349471       1.60269627       0.17252076       0.01839535       0.41441903       0.63004348       0.38014796       0.26944348       0.49711727       0.85907872
C        0.71590065       2.37691702      -0.34854815       0.08578702      -0.94637256      -2.61741953       0.08432471      -0.96370424      -2.61635096       1.17948472       0.44724473       0.06842174       0.51339915       0.58286074       0.32573409       0.24742708       0.45701915       0.94090806
C       -0.87097106      -0.26875226       0.19656869       0.64261992       0.08261425       0.25662902       0.64923786       0.06560654       0.27260452       0.76643814      -0.23683607       0.38028776      -0.16184980       2.12854111       0.01867975       0.38103300       0.21026331       0.46785177
N        1.70570471       3.09746172       0.20123001      -0.11018424       0.56521778       1.34291379      -0.10152580       0.56385411       1.34068793      -1.06500393      -0.40270157      -0.17365248      -0.41012206      -0.74392968      -0.18855356      -0.05422620      -0.04469334      -0.34376157
N       -1.33464549       1.01278543       0.18498515       0.66122214       0.94925512       0.27428843       0.67410186       0.98610913       0.30089561      -0.70614427       0.45744350      -0.15256961       0.19002938      -1.48338323       0.07649120      -0.13948030       0.03238542      -0.33880272
N        1.68086757      -0.64308129       0.33356219      -1.87986332      -0.79753199      -0.34363507      -1.87018800      -0.80347315      -0.34805826      -1.25692392      -0.18689070      -0.15295383      -0.21531868      -0.56035049       0.06570416      -0.15558967       0.07256424      -0.42204173
C        4.08729651      -0.44720814       0.08876430       0.31791644      -0.96836813       1.33371150       0.31036297      -0.95883785       1.33439573      -0.28987078       0.06266637       0.14799459       0.01576719       0.02661060      -0.02976748       0.19113978      -0.03911283      -0.09939946
C        2.99450805       3.42991712      -0.40460906       0.37568999       0.82021310       0.53507542       0.37672291       0.81535015       0.52618570       0.56188330       0.15121863      -0.05701559       0.12150892       0.34507813      -0.04656587      -0.23362822      -0.17307888       0.07209642
C       -2.56362054       1.46269157      -0.46728364       0.23018469       0.76828928      -0.89211265       0.22177084       0.75698105      -0.88726688       0.58121280      -0.12542182       0.09222261      -0.16153784       0.17581748      -0.04775689       0.09062477      -0.11113042       0.27431152
C       -2.47086761       3.03130128      -0.50111089      -0.11378219      -1.44921553      -0.53081648      -0.10700097      -1.45189336      -0.52442033       0.05938458       0.01301661      -0.03023582       0.01488593       0.04784667      -0.00148325      -0.00562155      -0.03446168       0.07105846
C       -1.45640908       3.39229776       0.56997075      -0.59263475      -1.01868586      -0.21949723      -0.60120558      -1.00649218      -0.22774052       0.05483395      -0.04397479      -0.04819118      -0.07965571       0.02427874       0.02450649      -0.01516815       0.05569527       0.09581564
C        1.16527369      -2.12005184       2.95467355       1.02262972       1.43211536      -0.50857625       0.99934045       1.41167684      -0.50812430       0.00932229      -0.03075558       0.00312049       0.03734851      -0.02234068       0.05713262      -0.10250464       0.06233637      -0.03800356
C       -0.52054117       2.16636839       0.58465051       0.61696026      -0.13043278       0.55364607       0.60841626      -0.12673594       0.55349587       0.11565462       0.19362488       0.08978094       0.23624788       0.46771025      -0.02294605       0.09745325       0.08737642       0.12833430
C        0.38182688      -0.59992979       1.07781746       0.22787676       0.46171490      -0.62229421       0.24590996       0.45545063      -0.65285855       0.37136044       0.04362693      -0.18191420      -0.10203953       0.06176772      -0.05372595      -0.28172370      -0.10536673       0.10927831
C        0.08336481      -1.84506772       1.92231943       0.62847119      -1.47678662       0.01667336       0.62216790      -1.47421895       0.04472808       0.58461384       0.06092481      -0.17489091       0.02135647       0.47062388      -0.07976146      -0.16233136      -0.11215253       0.47566002
H       -1.80586288      -1.79122827       2.09471776      -0.08014528       0.11700876       0.28667327      -0.07344269       0.12233378       0.28965342       0.26882248       0.06294620      -0.05855210       0.03918594       0.34227728      -0.06598686      -0.09420923      -0.11724514       0.22997399
H        1.59785106       3.22905900       1.21169694       0.41991298       0.02321599      -0.80945461       0.40443850       0.02109501      -0.79487384       0.13268527      -0.06564682       0.04810354      -0.02934593       0.31023557       0.03879717       0.04873333      -0.00223927       0.14116265
H        1.70266797      -1.10759268      -0.56500802      -0.14485417       0.07326755       0.33768852      -0.15871101       0.07361067       0.32616771       0.11280868      -0.05080508       0.02967748      -0.01681728       0.27258357      -0.03300092       0.03422560      -0.04081387       0.19697696
H        4.08186247      -1.51628730      -0.12839523       0.23703288       0.12534696      -0.29773788       0.24023453       0.12288331      -0.30024554       0.05350373      -0.05372421      -0.00242071       0.02172734      -0.06829978      -0.04571476       0.00204375      -0.02206036       0.07842998
H        4.17230799       0.13062983      -0.78960965       0.09312024       0.54253506      -1.05531059       0.09100500       0.55181255      -1.05551010       0.05396374       0.01207564      -0.01895149      -0.01191704       0.06088224       0.05899641       0.01063554       0.05292715       0.00911533
H        4.91497471      -0.22920380       0.77814629      -0.26896011      -0.04153510      -0.42475843      -0.25843211      -0.04215452      -0.42471775       0.00414476      -0.00613400      -0.01743631      -0.02674199       0.07372602      -0.03025815      -0.07639306      -0.02142388       0.03208851
H        3.78615954       2.85089996       0.10473200      -0.32237071       0.14323234      -0.48996060      -0.31785956       0.13466506      -0.49191906      -0.11001084       0.01502067      -0.01958179       0.07221787       0.02499424       0.04201085      -0.03288556       0.05702398       0.03283045
H        2.95448997       3.23379972      -1.47198889      -0.01612335      -0.25902538       0.14391895      -0.01229661      -0.26138283       0.14569962       0.06307276      -0.01106053      -0.03783616       0.01268655       0.08580761      -0.04429227       0.04037488      -0.00226344       0.01331517
H        3.27204706       4.52570345      -0.28516601      -0.66056034      -1.27183903       0.01471647      -0.66608437      -1.26821211       0.01808394      -0.03001684      -0.04585478       0.01485253      -0.10173573      -0.16457236      -0.00951542       0.02810454      -0.01933350       0.08178929
H       -3.43482921       1.20966109       0.10400175      -0.34189837      -0.59936939       0.30293648      -0.34316538      -0.59747706       0.30646582      -0.13131950       0.01266170       0.02363120      -0.00368805      -0.00544719       0.02692715       0.07085638       0.06417999      -0.01934403
H       -2.64458702       1.05757739      -1.48575327      -0.01653187      -0.00750248       0.47124595      -0.01924645      -0.01117635       0.47349785       0.00993762       0.04690286       0.00294015      -0.01349578       0.00678470      -0.04256670      -0.06621087      -0.01370326      -0.05415527
H       -2.17074153       3.32744219      -1.50612686       0.20534060       0.14091403       0.22481707       0.20544250       0.14608207       0.22222351       0.05525972      -0.04259961       0.04025944      -0.02835731       0.00373868       0.01218201       0.00892558       0.04568799      -0.07243051
H       -3.44505165       3.44215967      -0.31061403      -0.35203690       0.27232036       0.04695277      -0.35287596       0.26684933       0.04802156      -0.11527086       0.08634693      -0.01411645       0.04430921       0.00999410      -0.00005602       0.01980058      -0.01777673       0.05565145
H       -1.96177385       3.54107358       1.54098548       0.48155340      -0.09611953      -0.43804837       0.48261028      -0.10356225      -0.44049256      -0.03258103       0.04102260       0.05367546       0.03640777       0.04759629      -0.00636725       0.03206948      -0.03666670      -0.07983684
H       -0.93139837       4.25946858       0.25818308       0.52842779       0.88153587       0.20193996       0.53051032       0.88076980       0.20087624       0.02954203      -0.08656694      -0.00647543      -0.05003494      -0.04276515      -0.00120459       0.02345568       0.02665553       0.04154946
H        0.94537889      -2.92116139       3.61245587      -0.45659038      -0.92853172       0.24259198      -0.46374875      -0.92486487       0.25739943       0.04024037      -0.03256527       0.01177123      -0.02081044      -0.03228488       0.09601773      -0.01398166       0.10935816      -0.00855889
H        2.12191083      -2.29154608       2.47215297       0.12697781      -0.17344297      -0.00724284       0.13075957      -0.16541329      -0.01989589      -0.10411422       0.03431819       0.04324580       0.02872603       0.07883680      -0.03042525       0.08119021      -0.04069890       0.00941142
H        1.31781825      -1.23921583       3.60511043      -0.22280127      -0.23330407      -0.44031362      -0.21051921      -0.22208014      -0.43153336       0.05754087       0.01913096      -0.02847630      -0.01039914      -0.04402270      -0.08863173      -0.03648857      -0.05609989       0.02253547
H       -0.18062065       2.03731873       1.62096407       0.21289979      -0.06336905      -0.38195812       0.19823126      -0.07169419      -0.38101389      -0.04143353      -0.06250947      -0.05844631      -0.01787620       0.02332651       0.01998958      -0.06732961       0.01860809      -0.06492505
H        0.44224263       0.17601337       1.80885543       0.48973715       0.51207945       0.32677312       0.50474756       0.50387309       0.32190019       0.03584828      -0.01125599       0.00897575       0.01293968       0.01788128      -0.04097765       0.03447022      -0.05454984       0.02699149
H       -0.12404714      -2.73160741       1.28946014       0.67114587       0.46545090      -0.01213500       0.66754128       0.48036731      -0.01758467      -0.01321066      -0.04942730      -0.01454965      -0.00453510      -0.09441299      -0.05430392       0.02136354      -0.08778406      -0.06707775
45
Properties=species:S:1:pos:R:3:forces:R:3:MACE_forces:R:3:bec:R:9 smiles="[H:44][C@:19]([C:7](=[O:3])[N:8]([H:22])[C:12]([H:28])([H:29])[H:30])([C@@:20]([H:45])([C:17]([H:40])([H:41])[H:42])[O:4][H:21])[N:10]([H:24])[C:6](=[O:2])[C@@:18]([H:43])([C:16]([H:38])([H:39])[C:15]([H:37])([C:13]([H:31])([H:32])[H:33])[C:14]([H:34])([H:35])[H:36])[N:9]([H:23])[C:5](=[O:1])[C:11]([H:25])([H:26])[H:27]" total_charge=0 energy=-26566.831644571434 config_type=Dipeptides MACE_energy=-26566.853655311224 dipole="0.45053432627125695 0.598096843967811 -0.10005705142676391" pbc="F F F"
O       -1.42040036       1.04216268       2.24010529       0.11609047       0.02240835       0.03130066       0.11782098       0.04096835       0.03107151      -0.88989585      -0.08830269      -0.03726332      -0.37129455      -1.06327406      -0.38604992      -0.11685531      -0.31293697      -0.70623726
O        1.67654087       1.81927790      -0.15416644       0.00589108      -0.08044341       0.23407879      -0.00555715      -0.07472204       0.25142016      -0.64182476      -0.27767513      -0.11119100      -0.37956001      -0.79870555      -0.05116658       0.19548674       0.23415688      -0.74894731
O       -0.15812478      -2.63007257      -0.41810045       0.24047345       1.08691853      -1.03366497       0.23064082       1.09004634      -1.02771611      -0.36625273      -0.04517437       0.11081734      -0.06061119      -0.87457676       0.27940923       0.01205711       0.00180378      -1.02052121
O       -2.26651952       0.14780064      -0.40097318       0.38637370       0.02668036      -0.58435152       0.38131272       0.02673713      -0.59803187      -0.71274078       0.10201861       0.17841720       0.06236559      -0.44046220      -0.01493976       0.16073577      -0.10565631      -0.87516803
C       -0.91913889       2.12499549       2.53539207      -1.69136108      -0.25601487      -0.38035049      -1.69515755      -0.26615584      -0.38633042       1.84198401      -0.01035902       0.00841193       0.26814322       1.22015156       0.45346080       0.06781891       0.24560596       0.36527771
C        1.21942653       1.03143104       0.66951380       0.10261510       0.70503473      -1.32272102       0.08842168       0.69559549      -1.32225002       0.67517028       0.65467712       0.22458105       0.86857217       1.19567085       0.42140814      -0.00841005       0.04192432       0.93018890