34
Properties=species:S:1:pos:R:3:forces:R:3:MACE_forces:R:3:bec:R:9 smiles="[H:19][C:6]1=[C:11]([C@:18]2([C:10](=[C:8]([C:15]([C@:17]3([C:9](=[C:7]([C:4](=[O:1])[O:3]3)[C:12]([H:20])([H:21])[H:22])[C:16]2([H:31])[H:32])[H:33])([H:29])[H:30])[C:13]([H:23])([H:24])[H:25])[C:5]1=[O:2])[H:34])[C:14]([H:26])([H:27])[H:28]" total_charge=0 energy=-21969.81857434138 config_type=PubChem MACE_energy=-21969.827231349653 dipole="0.18750824213122141 0.3926988035945765 0.7042158429317967" pbc="F F F"
O       -4.06685111       0.21941420      -0.78457568       1.18049956      -0.67723359      -1.32109737       1.23211516      -0.67557371      -1.29891044      -1.61397803       0.07710635      -0.21405300       0.11613881      -0.38195942      -0.04713433      -0.26383736      -0.03952183      -0.51456406
O        4.45968821      -0.12127946       0.27756458      -1.07138389       0.89709884       1.11764526      -1.08758151       0.88954886       1.10543395      -1.17081057       0.16000096      -0.01182597       0.38596406      -0.48759925      -0.11070986       0.29234445      -0.20641114      -0.61243903
O       -1.98897717      -0.52161167      -1.59031246      -0.64481841       0.51172611       0.89855990      -0.67268950       0.52536701       0.90751806      -1.20314867       0.07227854      -0.03439001       0.18327280      -0.36928147      -0.16691821       0.22657301      -0.19220298      -0.62575706
C       -2.86512158       0.06070288      -0.67679093      -2.46866823       0.19639136      -0.10280384      -2.46147625       0.15481773      -0.18209653       2.19581989      -0.18331810       0.20130829      -0.19097167       0.41740731       0.24086144       0.35691018       0.22833351       0.89024645
C        3.46365954       0.42795706       0.79364817       2.34198340      -2.10132838      -2.30539664       2.30104041      -2.07493546      -2.32420244       1.21965888      -0.03577903       0.33112421      -0.43385080       0.51713055       0.32185279      -0.23916807       0.57126967       1.28719715
C        3.35073020       0.98870962       2.08213236       1.29519667       2.83681423       3.62998589       1.30796753       2.86973414       3.62994798      -0.10342019       0.17204030       0.39559501       0.28016902      -0.41205707      -0.31369808       0.37204208      -0.28244186      -0.54199169
C       -2.20649359       0.45984104       0.53503663       4.40950630      -1.12823426      -1.13773666       4.46582014      -1.14434787      -1.15686017      -0.43984090      -0.07656146      -0.25492514      -0.18360563      -0.02216138       0.04687641      -0.64660975       0.07313354      -0.10025714
C        1.76611891      -0.03922156      -1.06694410       1.00822547       1.91340984       2.14919135       0.94940553       1.94223070       2.16832240       0.26762661      -0.14151235      -0.02147348      -0.14674233       0.08157957       0.23979367       0.25117341       0.28929637       0.50056074
C       -0.89274547       0.13068702       0.37542094      -2.00421176       0.23659711       1.19520611      -1.98952393       0.27156907       1.19197418       0.44510358      -0.04734335       0.13740178      -0.32845136      -0.10273309       0.02275458       0.00030015       0.05654329      -0.00190952
C        2.20118930       0.58286276       0.14201059      -2.68063588      -1.40783848      -4.03997882      -2.67353840      -1.40666502      -4.00775509      -0.51044184      -0.17443482      -0.54177779      -0.09965829      -0.19733270      -0.12650164      -0.47981302      -0.14326230      -0.57050119
C        2.13734271       1.58892538       2.34059956       1.62225504      -1.72407724      -3.15565420       1.56096081      -1.74915421      -3.17547515       0.41739778      -0.24578260      -0.22153275      -0.21431792       0.10127488       0.27456440      -0.06818401       0.26177828       0.32349973
C       -2.87168739       1.15118029       1.59512260       0.69340442       0.80690713       2.01983264       0.66902972       0.83974990       2.05653667      -0.03004306       0.07704331       0.06311236       0.09370559       0.04190019      -0.02060582       0.06178962      -0.02348876       0.01934990
C        2.65247395      -0.93663309      -1.95527599      -0.25867163      -0.84216416       2.65928124      -0.23522493      -0.90364453       2.65476115      -0.04185359       0.08196178       0.11522225       0.09720930       0.06503788       0.07947221      -0.03212707      -0.08312110      -0.20635763
C        1.72494771       2.28564038       3.54922153       0.00116428      -0.44189140       0.70418038      -0.02397301      -0.43622089       0.72612713      -0.11451565       0.08093283       0.15223972      -0.01933109       0.07111551      -0.01733573       0.09511901      -0.11248474      -0.17299111
C        0.36915282       0.30745760      -1.67203830       1.08282757      -0.67243106      -0.76197839       1.07933110      -0.62483220      -0.77244712      -0.05079439       0.03224208      -0.03160892       0.07915764       0.03688612      -0.04327487       0.12606718       0.00568643       0.09338104
C        0.22062834       0.16462310       1.39957603      -2.35337633       1.45311536      -0.42889638      -2.35034671       1.38565534      -0.45091103       0.04382549       0.01495990      -0.08620014       0.00836205       0.04973545      -0.04060936      -0.12886757      -0.03995771       0.00895481
C       -0.72830699      -0.52436469      -0.94746683       1.64080484       0.06403683       0.61383483       1.63451015       0.06931159       0.65314907       0.64768682       0.06366149       0.10900920       0.21762869       0.31148149      -0.02285892       0.11828636      -0.10133849       0.17567920
C        1.23720201       1.29230859       1.08771821       1.16847561      -0.68342379      -0.13554735       1.18689061      -0.66918695      -0.13896249      -0.02220647       0.03715685       0.01145127       0.05152096       0.15045220      -0.04311877      -0.01008697      -0.11902430      -0.05814236
H        4.33492090       1.16709818       2.69970801      -2.27518649      -0.67440106      -0.95164845      -2.28042023      -0.70107952      -0.93282908      -0.04123734      -0.01359025      -0.10973846      -0.03070202       0.11563125      -0.05467148      -0.07123543      -0.04736226      -0.00602819
H       -2.11139915       1.59723153       2.31113531      -1.04839447      -0.40755797      -0.85934497      -1.04051176      -0.40635928      -0.85553847      -0.01256697      -0.07192588      -0.10184617      -0.02062631       0.03142295      -0.04698316      -0.03492434      -0.05039757      -0.02602140
H       -3.50222442       0.47288400       2.16012528      -0.36320372       0.16553785       0.03939108      -0.36555652       0.16163921       0.04888358       0.01532313      -0.02242597       0.05926838      -0.04596067       0.01345911       0.04227851       0.09513984      -0.00539655       0.01785335
H       -3.43759058       1.91982558       1.10969373      -0.66330236       0.56089187       0.31250173      -0.67126544       0.56361357       0.31864010       0.03016159       0.04180419       0.01203949       0.06025944       0.02405638      -0.00262987      -0.01587165       0.05484315       0.04113739
H        3.47837927      -1.43976078      -1.35734961      -1.04279896       0.93354230      -0.91870647      -1.04294927       0.92345876      -0.93338707       0.02417208       0.04862600       0.00340318       0.02429284       0.07026396       0.00562076      -0.03907412       0.03879213       0.08087378
H        3.03234388      -0.29811976      -2.69009206       1.06059839       0.89406266      -1.16917992       1.02953315       0.89511006      -1.14913047       0.07649022       0.02746647       0.05930759      -0.03922653      -0.02893558      -0.01726086       0.02745414       0.01582200      -0.01945081
H        2.08282532      -1.69486306      -2.48896024      -0.32516646       0.01821538       0.20665561      -0.30060061       0.00818576       0.20426741       0.01469133      -0.07517782      -0.04164829      -0.05370363      -0.02355445      -0.10983892      -0.02528083      -0.06106712       0.03027742
H        2.63666131       2.27270248       4.21703817      -1.34551847       0.88111840      -0.45959018      -1.33111072       0.88480378      -0.46147510      -0.00230852      -0.03157838      -0.11406548       0.02517620       0.05864930      -0.01463628      -0.04247269      -0.04431530       0.00852413
H        1.14780839       3.21473839       3.32867648       1.00420783      -0.39855829       0.45637702       1.01117513      -0.39789115       0.45379771       0.07407899       0.06341381      -0.02761996       0.07491235      -0.02356470      -0.04845493      -0.02062852       0.02807562       0.03409473
H        0.99208998       1.60656323       3.99916389      -0.04217303       0.17972835       0.33405376      -0.01751007       0.19367307       0.31881653      -0.00273891      -0.04931802       0.06984814      -0.03842495      -0.02845441      -0.00057844       0.08773272      -0.03184299       0.02203131
H        0.13739189       1.39478269      -1.74615572       0.03582204      -0.71531958       0.92740910       0.04630855      -0.72985665       0.91193978      -0.03278773       0.02142489      -0.03384166       0.02733138      -0.06961459       0.00836095      -0.01827773      -0.03432509       0.04904132
H        0.49802759       0.08482482      -2.73661945      -0.47673246      -0.56300808       0.15803535      -0.47791720      -0.55707133       0.16905171      -0.00717847      -0.01121400       0.04232351      -0.01954822       0.06178115      -0.03684762       0.04333949      -0.04158092      -0.11917296
H        0.55963180      -0.86399887       1.41455444       1.01230505       0.24101662       0.29870869       0.99841585       0.22303397       0.27308659      -0.02072641       0.02136981      -0.01252016       0.03243437      -0.02251590       0.01069232      -0.02275548      -0.03208922       0.06082863
H       -0.27981255       0.37981381       2.33309819      -0.03642065      -0.09883442       0.43048654      -0.01632763      -0.09136821       0.42370227       0.00017462       0.00137751       0.10743065       0.00444167       0.05132729      -0.03670643       0.05521826      -0.01721785      -0.09564884
H       -0.39866713      -1.55720351      -0.61712859      -0.22947979       0.71197915      -1.39195183      -0.19202374       0.72911333      -1.37934019      -0.05279192       0.04417315       0.00271852       0.07878233      -0.06970922       0.02869405       0.02393636       0.05153814       0.01740018
H        0.85868832       2.21830680       0.57049085      -0.22550007      -0.96642330       0.98996390      -0.24195640      -0.96242890       1.00336456       0.00201097       0.04090526      -0.01353851       0.02459155      -0.03079589      -0.00003091      -0.07386326       0.03400791       0.01086613
30
Properties=species:S:1:pos:R:3:forces:R:3:MACE_forces:R:3:bec:R:9 smiles="[H:23][C:10]1([C:5](=[C:6]([C:11]([C:14]([C:13]1([H:29])[C:4]#[N:2])([H:30])[C:12]([H:27])([H:28])[C:9]([H:21])([H:22])[C:3]#[N:1])([H:25])[H:26])[C:8]([H:18])([H:19])[H:20])[C:7]([H:15])([H:16])[H:17])[H:24]" total_charge=0 energy=-15693.637063105538 config_type=PubChem MACE_energy=-15693.617270274273 dipole="0.1394714086616516 0.5545454715003929 -1.033377890717838" pbc="F F F"
N        4.18288113      -0.05399499       2.52919438      -1.40840973      -1.13940071      -4.84817911      -1.42494339      -1.15204426      -4.82012228      -0.32530712       0.04123652      -0.00559554       0.05300842      -0.26656082       0.02348399       0.01215559       0.03020746      -0.32349531
N       -0.97465620      -2.32609746       0.88488060      -1.88681828      -3.44886980       3.19289877      -1.89322576      -3.43136640       3.18644401      -0.28963770      -0.05972332      -0.00553621      -0.01220187      -0.39073516      -0.03421621       0.01697648       0.03867476      -0.24334319
C        3.93715741      -0.24442790       1.37437578       2.34336909       1.53322150       5.83750545       2.35502338       1.55168639       5.80149658       0.01454940      -0.05660317      -0.07182395      -0.08715570       0.02410281      -0.05144485      -0.01854381      -0.01412371       0.25416218
C       -0.56533466      -1.57876489       0.17069807       2.60713790       3.67139394      -3.85247158       2.60886845       3.64017041      -3.84566032       0.00985614       0.04717506      -0.01276909       0.01061089       0.16622037       0.01181743      -0.03530556      -0.02754329       0.04885302
C       -1.15523050       1.42251249       0.39893254       0.20396756       0.83157582       4.24634746       0.16951330       0.83126592       4.26577744       0.09223208      -0.19365540       0.04869387      -0.11419783      -0.05435688       0.08946480      -0.01939224       0.08789451      -0.11284511
C       -0.24386237       1.30272385       1.49001129      -1.00869258       0.70767241      -3.84611474      -1.02319222       0.72598443      -3.84622675       0.18382940      -0.08307202       0.00618570      -0.01972798      -0.12131895       0.08511588       0.05274399       0.04088601       0.25737016
C       -2.44660566       2.30133869       0.52898252       0.42916159      -0.67633694       1.04855585       0.44914163      -0.68085912       1.05214003       0.01613112       0.09779188      -0.01309791       0.03033135       0.07573080      -0.05946569       0.03100759      -0.04900426       0.06603140
C       -0.48419163       1.78755154       2.88412359      -0.90101728       0.69485117      -1.13369567      -0.89764565       0.71844467      -1.13305182      -0.05691626       0.06702392       0.01152294       0.06980047       0.04391002       0.03478277       0.00916457      -0.00562795      -0.07938910
C        3.91933300      -0.25316892      -0.06706605      -1.01656724      -1.19989509      -0.21915807      -1.01574436      -1.22830280      -0.19872261       0.09738920       0.00165170       0.04919031       0.02249948       0.12240000       0.00203460       0.00919723      -0.01124247       0.03589603
C       -1.11502383       0.58911318      -0.82168589       0.68088390      -0.58507842      -1.35743145       0.66829009      -0.63189894      -1.41344443       0.04158498       0.05825739      -0.01603984       0.05715749       0.11746604       0.03278292       0.03388965      -0.00828884       0.17631711
C        1.16276302       0.78193524       1.20381715      -0.61608847      -1.37642810      -1.25156285      -0.61783110      -1.35071682      -1.29194449      -0.11085895       0.09997766       0.01865990       0.01450142       0.08462653      -0.06252521      -0.03149873      -0.00945209      -0.00924282
C        2.51155498      -0.80068598      -0.51729903       0.10364222      -0.26768574      -0.31678022       0.09854532      -0.24799213      -0.31893199       0.19440709       0.00119262       0.04928660       0.00169617       0.12169072       0.03256728       0.05149115      -0.02356916       0.10596903
C       -0.02361403      -0.50217948      -0.71664439      -1.74276394      -0.29296697       2.17330542      -1.78317889      -0.29951175       2.14172468       0.04605827       0.11672726      -0.04075362       0.14397692       0.13320090      -0.03099175      -0.03592513      -0.04134205       0.12961642
C        1.26108267       0.09036814      -0.22810749       1.65010284       2.12755582       0.33388016       1.69355869       2.08316043       0.37080189       0.15649032      -0.01658595      -0.01944095      -0.05245351       0.07246717      -0.02250568      -0.04177232       0.04355270       0.06036517
H       -2.26382682       3.24812128       1.10970774      -0.19185986      -1.09791016      -0.53408010      -0.19175390      -1.10279375      -0.54191495       0.00354467      -0.01571865      -0.02630967       0.03387594      -0.07682589      -0.05957681       0.01015173      -0.09641157       0.01734196
H       -2.69720099       2.57669856      -0.48489557      -0.35294456       0.18715641      -0.19825243      -0.34995585       0.19501973      -0.17918644       0.03004448       0.00896423      -0.00784127       0.03255744       0.04483127       0.02313217      -0.05912988       0.05389473      -0.10048983
H       -3.33261511       1.74367346       0.98636111       1.20354353       0.70082683      -0.61456633       1.20486994       0.69240981      -0.61183770      -0.12771900       0.00088007       0.01188703      -0.04189897      -0.01107444       0.04914160       0.07055072       0.01387829       0.05474779
H       -1.42405412       2.29531981       2.98895767      -0.61052965       0.22979776      -0.25511667      -0.60379091       0.22401279      -0.25613200      -0.07797100       0.09018476       0.04795446       0.07144867       0.02470720      -0.05417448       0.01111047      -0.02152713       0.03995747
H       -0.57996271       0.96128520       3.53557064       0.38870883      -0.98882820       0.81010262       0.38775308      -0.99426454       0.79794973       0.09782772      -0.00419306       0.00075774      -0.00983725      -0.01722837       0.04421646      -0.02723814       0.02022379      -0.03588699
H        0.22781460       2.49902942       3.23266008       0.96266328       0.19384825       0.29451048       0.96238759       0.20130286       0.29369843       0.00740553      -0.08650567      -0.03509143      -0.09693379       0.01770191      -0.08975864      -0.03023113      -0.02978535      -0.00693802
H        4.19576862       0.73260044      -0.39676187      -0.34751147       0.51339910      -0.30881723      -0.34570505       0.51740159      -0.30882805       0.07702989      -0.01867394      -0.03092399      -0.04750713      -0.01012242       0.02566542      -0.04059488      -0.00087764      -0.00542159
H        4.75621655      -0.90017138      -0.38769076      -0.64591404       0.03002720      -0.01548182      -0.63855671       0.03713010      -0.03437768      -0.02196574       0.04641989       0.00700099       0.04853470       0.05707958      -0.03337189      -0.02728977      -0.01356440       0.01472775
H       -0.69091997       1.07818600      -1.73185298      -1.09240973       0.54245263       0.53162880      -1.09114347       0.55745420       0.55082790       0.04410233      -0.04059475       0.10911240      -0.04390133      -0.02605470       0.03314945       0.00278257       0.03095828      -0.16861498
H       -2.13466689       0.12167245      -1.08870635       1.56888967       0.84241874       0.50301206       1.57915536       0.85626518       0.51532162      -0.09199042      -0.03064197      -0.04425185      -0.05618509       0.02670117      -0.08487991      -0.02914703      -0.02634827       0.01884118
H        1.44337483       0.07293942       1.94009855      -0.00026399      -0.94140712       0.87047440      -0.00863104      -0.95774697       0.89160045       0.04854219       0.01540181      -0.02122304       0.09458109      -0.03053508       0.07017670      -0.01669793       0.03689397      -0.01870679
H        1.97856297       1.50485905       1.30867185      -0.58932045       0.43203021      -0.22540556      -0.58361520       0.44303895      -0.21872651      -0.08451178      -0.04529999      -0.03446824      -0.08935412       0.00095731      -0.03759149       0.04978011      -0.04249562       0.04937431
H        2.37786104      -1.77957199      -0.01787058       0.10643994       0.42395478      -0.28649828       0.11343797       0.42309088      -0.28237833      -0.00150950      -0.01872727       0.00929848       0.00239941      -0.05659812       0.02706848      -0.00453455       0.07296524       0.02673139
H        2.56340220      -0.99139092      -1.61341856      -0.17132443       0.08910625       0.74626650      -0.17237334       0.09098739       0.74550485      -0.02806338       0.02048935      -0.02620893       0.01934805       0.03561354      -0.03073432       0.00367354      -0.06898594      -0.14323706
H        0.10678145      -0.76206622      -1.71569321       0.29844002      -1.51503134      -1.44557653       0.30195160      -1.50190449      -1.42674994       0.06853807      -0.02516629       0.03471623      -0.02587572      -0.01192194      -0.01386112       0.03828776      -0.04320019      -0.04940893
H        1.38252785       0.95790868      -0.90403459       0.03624516      -0.22277938       0.11936363       0.04879044      -0.20942378       0.11494869      -0.00844079      -0.01917861       0.00845105      -0.01054957      -0.09552165       0.07990670       0.01452403       0.06327301      -0.05916552
17
Properties=species:S:1:pos:R:3:forces:R:3:MACE_forces:R:3:bec:R:9 smiles="[H:15][C:10]([H:16])([H:17])[C:7]1=[C:6]([S:3][C:5](=[S:2])[N:8]1[H:11])[C:4](=[O:1])[C:9]([H:12])([H:13])[H:14]" total_charge=0 energy=-31553.841478848037 config_type=PubChem MACE_energy=-31553.868916659318 dipole="1.2731146102745854 0.5611726569375863 0.39756268997663613" pbc="F F F"
O        0.24958005      -2.32362745      -0.00588904       0.03684393       1.46960855       0.15800346       0.03141227       1.46895732       0.17006461      -0.68529665      -0.08848054      -0.00139482       0.09888655      -1.20002383      -0.10217154       0.00006227      -0.16741486      -0.32871335
S       -3.49055383       2.29581120       0.13000115       0.41281671      -0.26150072      -0.30985086       0.39497123      -0.24449530      -0.30144312      -1.08835016       0.56114364      -0.02213843       0.49844894      -0.60794346      -0.00080831       0.02992320      -0.03203950      -0.27046180
S       -1.74741481      -0.15607259      -0.34565637       0.33111402       1.05782994       0.35491984       0.34587409       1.02977309       0.38095228       0.10474191      -0.09670228      -0.02969405       0.45445790      -0.32030065      -0.05166297       0.18019754      -0.15376150       0.10713788
C        0.77228383      -1.21306071       0.15793120       0.17694029      -2.96656893      -0.41169319       0.17726516      -2.98806810      -0.43911995       1.15564301      -0.44115205      -0.10349886      -0.43725597       1.64553348       0.16293781      -0.07105531       0.19825490       0.19751397
C       -2.01312349       1.53134408       0.11743745      -2.44439775      -0.11339054      -0.07863756      -2.38817935      -0.11505497      -0.09138611       1.81943021      -1.04831006       0.06615565      -0.46576381       0.64253158       0.13369711       0.21377569       0.01612093       0.03929870
C       -0.08277712      -0.04197613       0.21275195      -0.13854481       2.08782953       0.66042449      -0.16012574       2.07964255       0.63673142      -0.29396217       0.61091284       0.20959250       0.35993221      -0.96510112      -0.12858891       0.08087373      -0.11238586      -0.14123493
C        0.15878814       1.22252520       0.71812593       0.70614363      -0.73276255      -0.07732904       0.72887102      -0.69085219      -0.03899070       0.55060499      -0.32387361       0.04645209      -0.33163301       0.90801250       0.15433459       0.02845043       0.06278957       0.09882094
N       -0.90943585       2.10268070       0.62442174       1.38173485      -0.76863803       0.33852281       1.33659073      -0.73291880       0.32670943      -1.46492554       0.77788126      -0.07402926      -0.25664312      -0.47551610      -0.12929617      -0.38062769       0.17980506      -0.20361159
C        2.29618086      -1.20175288       0.15943464      -0.21352638       0.59988193      -1.12419192      -0.19564301       0.60440245      -1.12880020      -0.34357945       0.04832051      -0.00524720       0.08928256      -0.04494372      -0.01142517       0.00079509      -0.00396037       0.03270324
C        1.42899027       1.73002722       1.33273061       0.17554138      -0.12639932       0.09569588       0.16748220      -0.14448645       0.07499525      -0.06246244      -0.06551195      -0.05385622      -0.04165129       0.02720824      -0.01363400      -0.00704254       0.07024293       0.06464623
H       -0.94320188       3.03285744       1.07116439      -0.03540500      -1.00213506      -0.56147938      -0.04634260      -1.02426093      -0.56847180       0.17741686       0.06541542      -0.00656303       0.04139463       0.30264335       0.01814224      -0.03640985       0.00230438       0.25883858
H        2.70092156      -2.18043063      -0.15150366      -0.60798018       0.46886342       0.14880763      -0.62786130       0.46244063       0.14912263       0.02879339       0.01651656       0.00080731       0.04782610      -0.01118963      -0.03150555       0.02070258      -0.02644484       0.08468757
H        2.70813419      -0.97532294       1.12258019       0.22227003       0.40772041       0.43598666       0.22903032       0.40624485       0.43333486       0.03445856       0.00164723      -0.00762161      -0.02085279       0.08803332      -0.05064336      -0.04528883      -0.03929722      -0.03766061
H        2.58817007      -0.44545582      -0.59929297       0.23265324      -0.30306523       0.66312447       0.23997767      -0.30324595       0.66419612       0.02671483       0.00549224      -0.00135590      -0.03354568      -0.01639805       0.08571858       0.03115440       0.07924507       0.02207866
H        1.90456965       0.99593844       2.00058117      -0.29971843       0.29648266      -0.35776357      -0.29637289       0.28452032      -0.34736521       0.02691436      -0.01243407      -0.04197454       0.02942065      -0.00240936       0.05942663      -0.06223959       0.02205192       0.04962741
H        1.23876824       2.63667014       1.90772285       0.00297371      -0.09766902      -0.01280403      -0.01113442      -0.08531708      -0.00812821       0.03126711       0.06423515       0.02489124       0.00581954      -0.03250532      -0.08196837      -0.02306613      -0.07940280       0.04378787
H        2.13613250       1.98585727       0.54347142       0.06505176      -0.01256477       0.08086351       0.07418462      -0.00728143       0.08759871      -0.01728564      -0.07523573      -0.00057825      -0.03826744       0.06213921      -0.01261940       0.03990271      -0.01629402      -0.01746106
44
Properties=species:S:1:pos:R:3:forces:R:3:MACE_forces:R:3:bec:R:9 smiles="[H:32][c:11]1[c:17]([c:20]2[c:19]([c:16]([c:10]1[H:31])[O:3][C:22]([H:34])([H:35])[H:36])[n:2][c:6]([c:13]3[c:18]2[N:21]([C:4](=[C:5]3[C:25]([H:43])([H:44])[C:24]([H:40])([H:41])[H:42])[H:26])[c:14]4[c:8]([c:7]([c:12]([c:9]([c:15]4[C:23]([H:37])([H:38])[H:39])[H:30])[F:1])[H:28])[H:29])[H:27])[H:33]" total_charge=0 energy=-29848.12784995789 config_type=PubChem MACE_energy=-29848.144280725606 dipole="-0.5101160727920537 0.329135323372344 0.22806568599302002" pbc="F F F"
F        3.55639460       5.81042101      -1.38327024      -0.46432498      -1.35011989       0.19837322      -0.45791803      -1.34314734       0.18999146      -0.54019849      -0.52996248       0.22184187      -0.52429567      -0.96699684       0.34408020       0.23146259       0.34923319      -0.28117665
N        0.76512762      -2.47925017       1.22165527      -1.69136565      -0.23745726       3.79867882      -1.70814268      -0.25492843       3.81124996      -0.26730842       0.10226800       0.10089326       0.06570269      -0.74947955      -0.09930668       0.07204030      -0.07898283      -0.54769575
O        1.79278924      -4.15120123      -0.94929156       0.58858960      -1.74797462       2.27193729       0.56600350      -1.75783542       2.27720071      -0.43186817       0.02193921       0.08531993       0.05469488      -2.18905088       0.16618712       0.00687505       0.39196682      -0.27642855
C       -0.37076090       1.96604242       2.15032878       0.84820205      -0.73994917      -0.76499030       0.82593032      -0.73464909      -0.73477859       0.10642448       0.17116753      -0.27076243       0.01421403      -0.16660550      -0.16587814      -0.28361730      -0.41300555       0.34776943
C       -0.51849435       0.79405522       2.79649713       0.75913581      -0.64234890       1.00035234       0.76951390      -0.64221950       0.97756235      -0.11882440      -0.07902615      -0.09342173      -0.12674484      -0.21690450       0.12609950      -0.13753076      -0.00166665       0.19520131
C        0.17801526      -1.67708108       2.11818602       1.15504887       0.44066362      -0.14143147       1.14616807       0.46479950      -0.14891226       0.02298993      -0.04138162      -0.02831297      -0.07857220       0.69766843       0.06891526      -0.09554571      -0.10644008       0.34310889
C        3.38198306       3.51065423      -0.46527235      -0.70645752      -0.11407406      -0.57199062      -0.70590907      -0.11824024      -0.57411518      -0.11851880      -0.02896563      -0.04496786      -0.21679120      -0.23514765       0.02774371      -0.10964972       0.01575405      -0.11972911
C        2.51398899       2.55868485       0.17117437       2.76590397       1.63796875      -1.25085437       2.74041205       1.64802102      -1.24833299       0.04017475      -0.05734981       0.02565694       0.01673478      -0.09498548       0.02270547       0.00668398       0.06630279      -0.10820135
C        1.44155087       4.84707024      -0.83784352       0.70606278       0.34358005       0.74526004       0.71339750       0.33997433       0.73642038      -0.25439404      -0.12265378       0.04519102      -0.10848981      -0.06033368      -0.03360849      -0.01471634       0.03274889      -0.15484367
C        1.77991392      -2.43860529      -2.28347966       0.03398490       3.10050276       2.67070547       0.01235679       3.08754042       2.68037967      -0.10594003      -0.16632162      -0.10715972      -0.01365900      -0.30966403      -0.11339414      -0.06143141       0.39120510      -0.12812713