61
Properties=species:S:1:pos:R:3:forces:R:3:MACE_forces:R:3:bec:R:9 energy=-39438.86061448684 config_type=QMugs MACE_energy=-39438.84352049734 dipole="0.4140453561443168 1.15001501273354 0.5681985404822163" pbc="F F F"
C       -3.64502663       3.18862061       3.58276075      -0.34513070       0.25732282      -1.17485037      -0.34174539       0.25594715      -1.17505705       0.12710894      -0.02558453      -0.07486386       0.00792999       0.09044587      -0.04748198       0.02791308      -0.03451238      -0.01204728
C       -3.42976708       2.49748860       2.21085108       1.59705350       0.07664512       2.57255887       1.59633950       0.07868930       2.57283075      -0.07766956       0.01430716       0.00887543      -0.05054059       0.02283926       0.20670656      -0.07389805       0.15652183       0.21793999
C       -3.57804108       3.07673633       1.00182977       0.57552671       1.95198355      -2.04136866       0.56369603       1.93605751      -2.05093893      -0.07469636      -0.06068535       0.01660563      -0.09027944       0.07060614      -0.07778728       0.05624750      -0.10297174      -0.16010582
C       -2.99977581       2.47357298      -0.13121925      -1.02850965      -1.76627152       1.64062705      -1.01287850      -1.72063965       1.63279891      -0.08947982      -0.00800063      -0.05304102      -0.04933669       0.03988625      -0.05270510      -0.08089998      -0.00741649       0.01766635
C       -2.63630268       1.11757581      -0.07741461       0.31621587       0.09946239      -0.02616602       0.33159242       0.07214017      -0.06510687      -0.14300155       0.05155287       0.01276606       0.07782419      -0.18254831       0.02258660       0.03230024       0.00399005      -0.04371772
C       -2.50717694       0.51355158       1.17584693       1.26106252      -2.26971139       0.13539483       1.27386841      -2.31061215       0.11172456      -0.03316944      -0.07699241      -0.01078568      -0.10595197       0.21045066      -0.00933371       0.04595071      -0.04136212      -0.10217659
C       -1.93586065      -0.99108142       1.51248262      -1.24490540       0.76764744      -0.93591483      -1.27661493       0.81446024      -0.90220906       0.41384844      -0.31420701      -0.18428996      -0.29616980       0.46737507       0.25903707      -0.20487151       0.31249530       0.48033378
N       -1.33701284      -1.62124023       0.31759179       1.77716422       0.91498689       0.69007802       1.86635000       0.85279699       0.59004327      -0.78927287       0.08912766       0.36918170       0.45941889      -0.52536691      -0.41450635       0.38770720      -0.19916477      -0.41847879
C       -0.07753969      -1.35258979      -0.21199817       0.90540686       0.10204160      -1.56681375       0.95850985       0.14544752      -1.50332124       1.52432133       0.67638238      -0.20583743       1.32880600       2.11826545       0.33251713       0.16622717       0.76023847       0.48136657
N        0.79171128      -0.31154477      -0.07168188       0.67358596       0.45438490       2.07707028       0.69803083       0.50132739       2.11315928      -1.45239926      -1.25433371      -0.05080448      -1.02762985      -1.62293609      -0.14603770      -0.19548851      -0.36718544      -0.35154082
C        1.90217394      -0.03278769      -1.02355145       0.66808351       1.96289793       2.98982565       0.64051193       1.98660387       2.99899975       0.71104572       0.39192327      -0.15323467       0.11300806       0.07505800      -0.11439052      -0.35035684      -0.30732608       0.23085615
C        3.19041273       0.63996102      -0.20880395      -1.55642342      -3.71212418      -0.31671826      -1.59726113      -3.77006501      -0.29009674       0.05300817      -0.31741862       0.14019059       0.08823478       0.86791995       0.02534682       0.27827207       0.23594958       0.21462099
N        2.72560969       1.85164178       0.29944345       0.25703547       0.76609497       0.46638730       0.25966099       0.78640005       0.45822513      -0.95634413      -0.80617735       0.28215490      -0.86259084      -1.69333637       0.23077723       0.20056296       0.22690819      -0.43261557
C        3.36010922       2.98850493      -0.08958446       1.53979337       3.07082687      -0.50413745       1.49075764       3.07343213      -0.48765133       0.55286184       0.93290544      -0.15414416       1.11850301       1.61587994      -0.42024288      -0.25623840      -0.58055638       0.11517198
C        2.88608328       4.29738290       0.20742637      -0.82441261      -2.52772002       0.40824151      -0.83454418      -2.56213107       0.38626092       0.00691934       0.10908467      -0.04352833      -0.45849343      -0.57768908       0.17723908      -0.07018934      -0.12142660      -0.20556910
C        3.69234448       5.40244516       0.03640598      -1.73690883       1.98118552       2.21357759      -1.69459189       2.00625461       2.22250635       0.15459024       0.09064986      -0.15870081       0.24179627       0.23164510      -0.01522527      -0.17657348       0.18752156       0.10141492
C        4.78475168       5.36974603      -0.70344153       4.07225842      -1.60626226      -2.66879429       4.05230233      -1.59788046      -2.63962349      -0.27530207       0.06265799       0.08579782       0.04059473      -0.23256062      -0.03509431       0.12905940      -0.00805176      -0.24344065
C        5.27980171       4.10828567      -1.21029964       0.24358568       0.78345930      -0.82891964       0.22230133       0.73910084      -0.83892844       0.08152334       0.09340700      -0.13054989      -0.07513591       0.27651114       0.08747561      -0.28273284      -0.06471386       0.09143688
C        4.60886115       2.95305814      -0.80791407      -0.37734419       0.68260562       0.40387650      -0.35189471       0.72591716       0.40315564      -0.29534464      -0.47665518       0.00993551      -0.06856386      -0.22468556      -0.02536698       0.14187838       0.27576023      -0.23597725
C        1.68967633       1.73611531       1.29350252       0.26235782      -0.19811430      -0.11333037       0.29090089      -0.22849007      -0.15207472       0.62268670       0.38401029      -0.16022568       0.06830866       0.00724149      -0.14243088      -0.19161213      -0.24770413       0.57608848
C        0.51617220       0.89555189       0.75488841       2.85203001       1.43676991      -5.23703743       2.82320899       1.37287638      -5.25159887       0.02170971      -0.12828242       0.07111968       0.07119465       0.72993753       0.20779871       0.26801692       0.40580199       0.12129260
N        0.30262262      -2.27505618      -1.11814920       1.92333983       2.65333408       0.28600358       1.85478389       2.68799932       0.31732604      -0.66235409      -0.40535380      -0.01770960      -0.68839181      -1.85648279      -0.45265577      -0.29641292      -0.85725618      -0.56535050
C       -0.63238598      -3.16343873      -1.12800108      -1.09119813      -0.06175842       1.07204711      -1.13744488      -0.08721950       1.14543367       0.92997897       0.81631709      -0.02253627       0.16168785       1.65051393       0.82500176      -0.34007585       0.45615133       0.64162867
C       -1.61327583      -2.87510958      -0.22518555      -3.37638842      -3.57879987      -0.47131679      -3.31351790      -3.46417448      -0.52157208      -1.07563672      -0.49640045       0.28707317      -0.82499488      -0.33722502       0.34334793       0.32633943       0.32048233      -0.22020985
C       -2.73312898      -3.88574517      -0.17479525      -0.27359405       0.27172922       0.37159112      -0.32238266       0.23740273       0.40091367       1.92557250       0.58198050      -0.59038520       0.67887170       1.80580911       0.32609008      -0.53181118       0.40682418       0.73479858
O       -3.81509418      -3.86168769       0.39319203       0.55844832       1.29189726       0.56566097       0.57601919       1.31057180       0.56245714      -1.45431879      -0.28445153       0.46517789      -0.14558377      -0.75078355      -0.09140913       0.54036380      -0.06042987      -0.66110583
N       -2.49816727      -5.11426745      -0.89625995      -1.66520574       1.46105545       1.99386472      -1.72032608       1.49903467       2.04902408      -0.78988683       0.07868633       0.42255453      -0.05407286      -1.18267207      -0.36909311       0.26914814      -0.54869617      -0.66756220
C       -3.49749262      -6.22326571      -0.74553416      -0.63100909       0.97997588      -0.58547435      -0.61756426       0.96530077      -0.59546873       0.34940755       0.34623175       0.01799734       0.24621062       0.44065948      -0.07687961      -0.01973245      -0.08982263       0.13309541
C       -1.45016077      -5.31748621      -1.68538754      -0.25940455       0.30096618       0.22370552      -0.17185673       0.37515041       0.16951235       1.01453393       0.16586171      -0.39095761       0.14566502       2.00937197       0.60643691      -0.42838810       0.52031388       0.84954281
O       -1.31984117      -6.38156471      -2.22964275       0.84061783      -1.30302139      -1.03870826       0.84743360      -1.33226044      -1.04281754      -0.54109238       0.05055170       0.14413607      -0.01321097      -1.50803361      -0.50065562       0.10970436      -0.52871892      -0.70977644
N       -0.59227602      -4.24296399      -1.88768221      -2.03893311      -3.13982111      -1.07159153      -2.06988365      -3.22840119      -1.09243482      -0.58386190      -0.36894608       0.07385697       0.01481205      -1.55113768      -0.70952062       0.36311792      -0.47436261      -0.68800699
C        0.24225322      -4.58425662      -2.97525012       1.89951298      -1.74881195       0.30178981       1.90217954      -1.74939519       0.31206735       0.40610287      -0.23215352      -0.24891558      -0.15940915       0.21475087       0.10241426      -0.19376515       0.13608366       0.41773156
C       -2.74347733       1.28817618       2.25516028      -0.93614635      -1.07119983       3.91702720      -0.92879441      -1.06659291       3.98060851      -0.14569666       0.05322909       0.06136956       0.05781762      -0.21320562      -0.19567610       0.02627680      -0.06628360       0.07289387
H       -4.28450060       4.06522605       3.33766357       0.10952508      -0.61961440       0.83227207       0.10657755      -0.62228626       0.83017495      -0.00906278       0.08148409       0.01960065       0.09283306      -0.05589982      -0.02899955      -0.05099448       0.06386500       0.04739185
H       -4.13623344       2.41431715       4.21723756       0.31613488       1.13094094      -0.07138256       0.30953719       1.12760553      -0.06433223       0.03547673      -0.01933927       0.03700227      -0.05799553      -0.01246974       0.07714181       0.04509675      -0.01209696      -0.01382810
H       -2.69549588       3.60485006       4.04788264      -1.09410970      -0.86821530      -0.66149499      -1.08315547      -0.86801904      -0.65640650      -0.04673677      -0.04811179      -0.05381255      -0.02045479       0.03494011      -0.05562779      -0.00538911      -0.05603232      -0.02552490
H       -3.94427531       4.12173056       0.84711408       0.19744873      -1.04694204       0.51317223       0.19578026      -1.03775740       0.51373517       0.08494894       0.03346704       0.01897613       0.10074188      -0.09398165       0.02187487       0.00686125       0.00741840       0.07569948
H       -2.90987274       3.08434682      -0.96663123      -0.05756778       0.43455991      -1.72560519      -0.06155951       0.42579888      -1.71816870       0.10116070       0.02124836       0.01551958       0.02060800       0.02520322       0.06260221       0.01574525       0.04001423      -0.00871693
H       -2.38591298       0.51368903      -0.93846172       0.13369525       0.35704592      -0.23335668       0.12462787       0.34196580      -0.22902846       0.11739283      -0.00721987       0.04783480       0.00769953       0.06083370      -0.04439596       0.05570738      -0.06435372      -0.00633653
H       -1.24088178      -1.01276515       2.38392588      -0.31332427       0.45784846      -0.82928367      -0.30557685       0.44056035      -0.83404404      -0.02500099       0.06624614      -0.06101560       0.08790542      -0.04411144      -0.08023688       0.00140176      -0.07109766      -0.07480878
H       -2.77461809      -1.65557997       1.82968879       0.47899879       0.67249923      -0.51880636       0.48539193       0.65773483      -0.52298202       0.00622830       0.05203009       0.04540415      -0.00571619      -0.00236624       0.01249482      -0.00329625      -0.01259715       0.08929641
H        2.32476297      -0.80593020      -1.57943480      -0.37269181      -1.52179706      -0.81998515      -0.37046344      -1.52249782      -0.80774484       0.02743925      -0.01500026       0.03675910      -0.02024387       0.01145043      -0.02199053       0.01602014      -0.01634479       0.05358907
H        1.46873391       0.78960562      -1.57837667       0.57405529       0.09626312      -0.91804775       0.57242852       0.10577233      -0.95559249      -0.08933764       0.00334813      -0.05902585      -0.06626651      -0.10904977       0.09597558       0.07934705       0.11704410      -0.00653524
H        3.59623862      -0.08845383       0.62496281      -0.89935540       1.20918290      -1.52327002      -0.89419792       1.20536161      -1.50778756       0.00446776       0.05868859      -0.05814192      -0.00763444      -0.18787702       0.04960849      -0.11495582       0.10888385      -0.08110043
H        3.97701935       0.75612365      -0.95295759      -0.54406202      -0.17863386       0.30269765      -0.50095410      -0.16022643       0.28203740       0.00918996       0.02003518       0.02871575      -0.00734427       0.09212157       0.01177316       0.02827838      -0.02825668       0.00398115
H        1.86296960       4.27760560       0.57632143       0.41311311       0.83389063       0.42690711       0.40763920       0.83072999       0.42904682      -0.09303097      -0.02537641       0.08064478      -0.00809477       0.09278100       0.00220085       0.05860540      -0.00651029       0.08629362
H        3.59187362       6.35576197       0.62220931      -0.90562658      -0.96021202      -0.88643438      -0.91214966      -0.94887587      -0.88976293       0.08467789      -0.01717777       0.01782410       0.01111544      -0.08453832      -0.06796038       0.04042473      -0.11294077       0.04142306
H        5.40632603       6.24710695      -0.89347147      -0.37238360      -0.20045546       0.19755997      -0.36868542      -0.18938032       0.20082428       0.03297820      -0.10707643       0.03921239      -0.08970075      -0.05094714       0.02026964       0.05415833      -0.01967367       0.08246280
H        6.19319559       4.09504763      -1.97984618      -2.08168960      -0.16403840       2.19591885      -2.08209533      -0.16690484       2.18197729      -0.03485536      -0.01684601       0.09717376      -0.00536952       0.06657439      -0.00474647       0.13692619       0.00556343       0.01396250
H        5.02513817       1.98635300      -0.92990026       0.70574551      -0.16958203      -0.61134522       0.70494713      -0.19941060      -0.60668838       0.12034724       0.10248383       0.02175290       0.04572610      -0.05859512      -0.02138578       0.03274945       0.02527781       0.09767845
H        1.23122691       2.69012656       1.51371913       0.04091159       0.23023487      -0.21532153       0.04704169       0.25665134      -0.22116172       0.01931607       0.01729445       0.00636681       0.04168797      -0.04170861      -0.03416594      -0.00166811       0.00567964       0.04043298
H        2.08031310       1.44011686       2.29025331       0.03078637      -0.53075637      -0.61755313       0.01956711      -0.53707410      -0.61431879      -0.10925188      -0.06997155      -0.05517113      -0.04779481       0.01017080       0.09110005       0.03373203       0.13599547      -0.18428806
H        0.03397216       1.58752422       0.02582667      -0.21118635      -0.28676323       0.92277737      -0.22699438      -0.26254351       0.89757055       0.07924670       0.05226254      -0.05290564      -0.01743088      -0.20572440      -0.04756842      -0.11568960       0.04366986      -0.03104574
H        0.00728179       0.72549012       1.56513608      -3.49026358      -1.30516432       3.80980941      -3.49011438      -1.33164873       3.82466589       0.09227522      -0.01101869       0.02929470      -0.05596705      -0.02913612       0.00169976       0.07108788      -0.02668329       0.00221869
H       -3.15121331      -6.93169336      -0.03521597       0.52252358      -0.53957109       0.70727975       0.51553582      -0.54717255       0.71161056      -0.00821735      -0.00264763      -0.06654721      -0.04835592      -0.07606166       0.06024978      -0.02755946       0.08954599      -0.00797597
H       -4.49211303      -5.84801582      -0.36316688       1.41519369      -0.15328665      -0.86325874       1.40542769      -0.14353902      -0.85796847       0.01414904      -0.00573988       0.01713774       0.05904622       0.11005865       0.00498647       0.05623099       0.04278035       0.09821578
H       -3.53650408      -6.75487841      -1.70946450      -0.26732864       0.48383627       0.46044076      -0.28171326       0.46928705       0.45740508       0.09276027      -0.00213848       0.01740650      -0.07231536       0.00118495      -0.01168321      -0.04192111      -0.05763477      -0.00694021
H        0.98842127      -5.30985310      -2.50355793      -0.48662783       0.92336215      -1.54679947      -0.48138915       0.91259788      -1.54845732      -0.06818459       0.09952507       0.04427168       0.12536768      -0.01417834      -0.03928750      -0.04976511       0.04792640      -0.00868498
H       -0.30505533      -5.06094420      -3.80481355       0.16896732       0.07116486       0.74285318       0.17317728       0.07088504       0.74169061       0.00173309      -0.00663790      -0.06011387       0.03591341       0.04596111      -0.07696013       0.00163723      -0.05288827      -0.02940330
H        0.66217220      -3.71695964      -3.35190000       1.34095004       1.57630312      -0.52757285       1.34011735       1.59391111      -0.54727295       0.02673097       0.00079352       0.04384387      -0.06610663      -0.01178445       0.07606612       0.03912922       0.03981238       0.07194680
H       -2.56855945       0.85418015       3.33858397      -0.19010186       0.78296557      -2.29193317      -0.20589377       0.79342584      -2.30716866       0.07572153       0.01099394      -0.01605644       0.01673826       0.04077209       0.09113783      -0.03729219       0.06692250      -0.09950343
66
Properties=species:S:1:pos:R:3:forces:R:3:MACE_forces:R:3:bec:R:9 energy=-41656.324167143954 config_type=QMugs MACE_energy=-41656.29675197966 dipole="0.48817645345851124 -0.4942718155977644 0.3793768956170175" pbc="F F F"
C        5.63569059      -1.94183112      -4.14558721       0.62555367       0.64945480       2.30649616       0.64111759       0.63449702       2.29194678       0.03635762      -0.04557429      -0.02377049      -0.00254647      -0.00818960      -0.03508160       0.00492940       0.05179017       0.03667659
C        4.98852322      -1.93042455      -2.73353492       0.75692972       0.87380126       1.09421840       0.77135475       0.92083537       1.15186707       0.05589777      -0.00517556      -0.06628205      -0.04622360      -0.14673837      -0.18838400      -0.09069991      -0.20394482      -0.08866349
C        4.87862764      -3.32622580      -2.16599393       0.83490824       0.90830019      -1.80482363       0.79915159       0.88257418      -1.84094547       0.02871750      -0.07084273       0.04183027      -0.07597183      -0.03629444       0.04332236      -0.01203517       0.02962940      -0.06194615
C        5.64774888      -1.00052834      -1.71114942      -1.48748316      -0.19568665      -0.53960557      -1.54542779      -0.17491584      -0.57448399       1.03226912      -0.11089759       0.11360412      -0.41228300       0.58229961       0.48003776       0.11024643       0.48520314       0.56989426
O        6.77273284      -1.08567859      -1.39484346       3.61383418      -0.70430235       0.70603126       3.64640878      -0.72859503       0.70627760      -1.12087940       0.01274642      -0.09830277       0.17911107      -0.45771310      -0.18100965      -0.11779075      -0.20228367      -0.50321303
C        4.87444846       0.17649427      -1.14321427       0.52928395       0.34082123      -1.36881194       0.56160293       0.40232826      -1.37766980       0.27278821       0.08890252      -0.05774180       0.43544880       0.11513232       0.05294657      -0.19008393       0.04222325       0.11661666
C        5.60064134       0.99515515      -0.08250101      -1.08223430       1.80108295       1.21734156      -1.18274709       1.82288062       1.24226457       0.01483337       0.00709627       0.00378417       0.02563398       0.02316343      -0.05405104      -0.00558682      -0.03532185       0.05728222
C        5.31128517       0.27124201       1.31220504       1.97870834       0.07639167      -0.15997570       2.01627727       0.08292435      -0.13365481       0.08858228      -0.06386407       0.00320565      -0.06655146       0.09534868       0.01657264       0.03122701       0.03609851       0.10025243
C        4.01198281      -0.49493808       0.96555288       0.07398506      -0.79701725       1.13901771       0.06029713      -0.75499880       1.13217697       0.17230885      -0.03306366       0.10754976      -0.06696433       0.25215177      -0.04962428       0.20581618      -0.01321913       0.44398554
N        3.69608260      -0.10251308      -0.41034300       0.25557934      -1.23280619       1.56666593       0.28081811      -1.25726054       1.53462419      -1.50149867      -0.04208539      -0.40653418      -0.32556385      -0.39556056      -0.06877607      -0.32737861       0.03439457      -0.63529518
C        2.53539588      -0.11862898      -1.01278983      -1.48585919      -0.63315862      -3.10393116      -1.51840518      -0.66797600      -3.11223906       2.21667400       0.19351138       0.40089811       0.44214632       0.41765543      -0.33664794       0.68241288      -0.23568797       0.96434904
O        2.35079474       0.36477241      -2.14383140       0.53340569       0.21578666       0.57289655       0.57549056       0.23535435       0.61193024      -1.12936090      -0.08709853      -0.00055347      -0.17622763      -0.54754691       0.28683586      -0.18566270       0.24077393      -1.00370461
C        1.37995995      -0.89847599      -0.55545409      -1.05153341       1.02547537       1.63376238      -1.01861317       1.03289632       1.65454513      -0.09156889       0.01590817       0.00133747      -0.00324711      -0.01691610       0.02798163      -0.12119125      -0.03733862       0.01591430
C        1.31190088      -2.28401699      -0.44247943       2.33932985      -1.71759173      -1.24469257       2.33537604      -1.73769409      -1.26292694       0.00449442      -0.04747406      -0.04487049      -0.07165394      -0.00485853       0.05861053      -0.15581422       0.04198008      -0.05403462
C        0.17203384      -3.00304528      -0.14686008      -2.19861830       3.72375289       0.96155515      -2.19889595       3.73361422       0.95674432      -0.11603791      -0.00509893       0.01038899       0.04379920       0.04174103      -0.04334307       0.00064058      -0.08650280      -0.09553389
C       -0.97900058      -2.18748028       0.14712617       1.43228005      -2.19263009       0.34704214       1.44323713      -2.20651248       0.34291097      -0.09879092       0.07919575      -0.02689921      -0.07074881      -0.02668097       0.01122295      -0.11825020      -0.00194386      -0.06240163
C       -0.84114214      -0.82669711       0.09923322      -1.64268806       0.95032084       1.08407017      -1.66899591       0.92072725       1.08584457      -0.15684436       0.07841776       0.02015389       0.10647918      -0.10777816      -0.03714616       0.05460853      -0.04660586      -0.07055684
C       -1.87437927       0.15982350       0.50789804       0.58862816      -1.18702068      -0.81208698       0.58655092      -1.16019625      -0.79865079       1.91196712      -0.34912026       0.41081393      -0.38880102       0.79708346       0.52593904       0.53430428       0.35505288       0.95025871
O       -1.58886408       1.02465487       1.28978939       0.05866272       1.49540242       1.68317839       0.01022104       1.49770265       1.65607351      -0.94303346       0.17072691      -0.08611070       0.16906754      -0.86006931      -0.58139592      -0.12947553      -0.36188311      -0.83571300
N       -2.95921385       0.12793320      -0.22633523      -1.99693449       1.08620480      -0.24076657      -2.03853720       1.14652199      -0.24617540      -1.34275277       0.11836023      -0.37382771       0.28009257      -0.44856876      -0.11974177      -0.46115216      -0.16726141      -0.69333372
C       -3.26266497      -0.83197414      -1.24309549      -0.35486066      -2.32658057       0.39838135      -0.33200038      -2.28366056       0.37639303       0.16759498       0.07008799       0.05238509       0.09620365       0.33858530       0.14370672       0.01482227       0.13142224       0.39401808
C       -4.60244593      -0.30271412      -1.85793696       3.29834696       0.67660130      -2.85531788       3.27836370       0.62475032      -2.86039745       0.07399662      -0.03649586      -0.04420331      -0.00303995       0.05281306       0.02669961       0.02044867       0.00137711       0.15630288
C       -4.73294778       1.11437864      -1.36656055      -1.52434164       0.47731255      -2.47438345      -1.53198163       0.46387163      -2.44891186      -0.04485132       0.06941605       0.00262318      -0.00432120       0.03740507      -0.06335193      -0.02014967      -0.05554545       0.05411326
C       -3.98016846       1.16733043      -0.14842282       3.39336998       3.21099303       1.77574958       3.46095364       3.19718129       1.74750459       0.28266230      -0.15700428       0.04026550      -0.20454407       0.27787542      -0.02378646       0.14259186       0.01405862       0.04515939
C       -4.89383000       0.92981911       0.93834572       2.78215846       1.36746527       2.93238041       2.76272831       1.38952065       2.88767638       0.85304683       0.47206105       0.13479216       0.31000689       1.02013174       0.80974022      -0.36961429       0.83079387       1.39996002
O       -5.69371907       0.06298257       0.90049048      -2.56272205      -1.63530891       0.75494920      -2.51179953      -1.61473203       0.77946397      -0.79991426      -0.37459917      -0.12635441      -0.32719242      -0.84744622      -0.37640551       0.22930824      -0.19903793      -0.70106619
N       -4.52592964       1.67412508       2.08319402      -0.49658221      -1.79065448       0.54982495      -0.51644466      -1.82147921       0.58032815      -0.61241932      -0.19113995      -0.14345452       0.01254345      -0.80740673      -0.34834672       0.07318667      -0.75082366      -1.14389406
C       -3.79132614       2.89671567       2.22205442       0.30364736       3.36927822       0.73138570       0.42059061       3.35387660       0.71952275       0.25078852       0.10530518       0.10812025       0.07926524       0.53013551       0.02258564       0.11065793      -0.03634519       0.09988064
C       -3.89064773       3.22673438       3.84134163       0.55934383      -0.82922395      -2.90577411       0.51872872      -0.85808892      -2.91030455       0.11200443       0.01888526       0.02923932      -0.01147449       0.08853712      -0.00658488      -0.04950432      -0.01411734      -0.00257912
C       -5.06934958       2.42954881       4.35449992       0.13953898       0.83062463       0.73914694       0.19258093       0.85320327       0.75829778      -0.01388103      -0.01808014      -0.01710382       0.03706235       0.00398838      -0.04260543       0.02074863      -0.05230223       0.05056738
C       -5.47781557       1.59555488       3.18789097      -1.43446398      -0.93471542      -1.33503140      -1.46168694      -0.94600709      -1.33654845       0.44905429      -0.09352740      -0.12710968      -0.14063685       0.25458198      -0.09593873      -0.11089949       0.07208656       0.43795040
C       -6.59290868       2.32341106       2.58966017      -1.40403182       0.71935382       0.52015641      -1.37712321       0.67206739       0.57380120       0.21866328      -0.02989539       0.05865244      -0.09403811       0.01078843       0.05266513       0.05380443      -0.00030364       0.02015455
N       -7.31697028       3.15110949       2.25876859      -0.20121065      -0.22047268      -0.39450065      -0.26524968      -0.17416684      -0.38714690      -0.40564429      -0.00411007      -0.00136158       0.11282295      -0.25517867      -0.03102374      -0.05077430       0.00242559      -0.28475664
C        0.26780313      -0.11045019      -0.22877774       1.86530963      -0.92459077      -0.96416320       1.90047506      -0.96085693      -0.99583505      -0.09530666      -0.04013636       0.01290491       0.03497758      -0.01168643      -0.02300779       0.03563099      -0.00499083      -0.06147537