83
Properties=species:S:1:pos:R:3:forces:R:3:MACE_forces:R:3:bec:R:9 smiles="[H:23][C@:11]([C:5](=[O:2])[N:6]([H:13])[C:9]([H:18])([H:19])[H:20])([C:10]([H:21])([H:22])[O:3][H:12])[N:7]([H:14])[C:4](=[O:1])[C:8]([H:15])([H:16])[H:17].[H:25][O:24][H:26].[H:28][O:27][H:29].[H:31][O:30][H:32].[H:34][O:33][H:35].[H:37][O:36][H:38].[H:40][O:39][H:41].[H:43][O:42][H:44].[H:46][O:45][H:47].[H:49][O:48][H:50].[H:52][O:51][H:53].[H:55][O:54][H:56].[H:58][O:57][H:59].[H:61][O:60][H:62].[H:64][O:63][H:65].[H:67][O:66][H:68].[H:70][O:69][H:71].[H:73][O:72][H:74].[H:76][O:75][H:77].[H:79][O:78][H:80].[H:82][O:81][H:83]" total_charge=0 energy=-57171.27688761064 config_type="Solvated Amino Acids" MACE_energy=-57171.36101044136 dipole="0.7957042453940293 -1.7250960164548839 -0.7334294716734062" pbc="F F F"
O       12.20287513      14.04271888      10.99770069       0.33551963      -0.05329588      -0.50377721       0.42251179      -0.03854415      -0.47938937      -0.82279383      -0.55187944       0.03244747      -0.66247172      -1.78920190       0.06922038      -0.17092101      -0.29058413      -0.74015155
O        9.08412265      11.06684493      12.72277354       0.68594792       1.40749748       2.42327217       0.70402341       1.36156310       2.40941339      -1.06013249       0.26491838       0.56721521       0.14114547      -0.91165555      -0.57197194       0.37704671      -0.63672873      -1.63639075
O       11.53866767       8.31202506      11.56072425       0.05133292       1.07083766      -1.75576522       0.01493752       1.05180592      -1.67856729      -0.58553267       0.01581666      -0.01945343       0.01636478      -1.20119066       0.04189594      -0.01784933      -0.02347395      -0.41383277
C       11.88245582      12.93477153      10.55249118      -0.16290374       1.39026411      -1.30987517      -0.17984931       1.41738230      -1.40728760       0.56894400       0.75075751      -0.17229768       0.93700112       2.19935961      -0.17729759      -0.36667417      -0.42958875       1.14167653
C        9.47470760      10.50541782      11.72043037       2.31031490       1.09584185      -1.12397370       2.39261566       1.14485125      -1.15261497       1.38542687       0.37501826       0.06645428       0.20578799       0.84773810       0.86823150      -0.25840093       0.85388903       1.41895403
N        8.62161731       9.81826877      11.06692313      -2.75221663      -2.77183131      -1.15506858      -2.75498292      -2.82088063      -1.20535819      -0.83877000      -0.53690688      -0.51194587      -0.13760005      -0.63660825      -0.37794678       0.01184437      -0.25433852      -0.70830022
N       11.43187140      12.04698085      11.38985633      -1.21301554      -3.12908110       1.06665387      -1.24397032      -3.19516397       1.12963531      -0.64063006      -0.37769978       0.14731516      -0.36999312      -1.17300211       0.27342705       0.44924577       0.80819122      -0.59714392
C       11.89242744      12.56530189       9.08324336       2.41465511       2.77168220       0.24918813       2.43646792       2.77388882       0.31777826       0.03729011      -0.02649524       0.01220820      -0.05943407      -0.12659298      -0.04360014       0.01595735      -0.01977755      -0.29310934
C        8.59850025       9.15200614       9.75669955       2.12408274       0.51071835       0.34685523       2.13363711       0.51328727       0.37736018       0.13845278      -0.11016864       0.04330408      -0.10736742       0.24935888       0.17770389       0.04850143       0.20211372       0.46536152
C       11.90042876       9.66017341      11.86673355      -0.58128740       0.44334252       0.86026472      -0.58828202       0.49037644       0.80851541       0.31051239       0.00349299       0.02617450      -0.08602333       0.80834993       0.08198244       0.07398964       0.10361884       0.28410354
C       10.92021179      10.68413734      11.18889236       0.73209556      -0.27321892       0.47544311       0.73983533      -0.26113486       0.50006784       0.08898613       0.23766996       0.01659351       0.22396492       0.52987805      -0.14123057       0.06666951       0.06478914       0.04838163
H       11.63761996       8.27019786      10.56068897       0.07377558      -0.37291743       2.00444610       0.07107055      -0.37137728       1.98516153       0.47686060      -0.09260594      -0.08429117      -0.04681636       0.28193618       0.03771818      -0.06391447       0.03027239       0.23809270
H        7.79715538       9.61561775      11.66945934       0.84918101       0.35839690      -1.11696626       0.87209628       0.36372263      -1.13664860       0.44766547       0.04239331      -0.06447791       0.01163258       0.20729992      -0.16718199      -0.15417364      -0.13602865       0.23968431
H       11.52803897      12.28433418      12.34152602      -0.10174522       0.55082910       1.15473238      -0.09513247       0.54360477       1.15610459       0.30192032      -0.03045159       0.02199415      -0.06690194       0.13829279       0.03221611      -0.00503750      -0.00283452       0.20966403
H       10.98567771      12.14185809       8.80803203      -1.31755559      -1.31393371      -0.60222560      -1.32560247      -1.32157817      -0.61522301       0.00498478      -0.06599354       0.00970994      -0.04385501       0.05379060      -0.04150787       0.04424478      -0.02744344       0.06404208
H       12.83933734      11.99540519       8.90635490      -1.11583720       0.23010891      -0.19129401      -1.09944633       0.20895643      -0.21510072       0.03294524       0.08921000      -0.01004283       0.10086171       0.05566680      -0.05886174      -0.01104670      -0.02104077       0.02485991
H       11.95075988      13.55410098       8.53397083       0.17214669      -1.31166846       0.51693144       0.17099743      -1.27567383       0.53390633       0.12003599       0.01659014       0.00303921       0.00014377       0.08615477      -0.00194882       0.01003029      -0.04504325       0.11198449
H        7.73221206       8.56177139       9.75922393      -0.83862017      -0.99324921      -0.00876321      -0.84191537      -0.97755678      -0.00615165       0.05117988      -0.06001668      -0.00677716       0.01136570       0.15658473      -0.01946172       0.06122304      -0.00488466       0.05753876
H        9.51586723       8.51282596       9.60383510      -1.08078198       0.64094782       0.12453219      -1.08655503       0.64015608       0.14287873      -0.08484487       0.13239803       0.05447145       0.09324300      -0.00260269      -0.05339148       0.00271233      -0.05736598      -0.02611519
H        8.45815849       9.88827609       8.96951198       0.23139608       0.05364988      -0.02815365       0.23518570       0.07336489      -0.01639308       0.15313850       0.02898354       0.03699099       0.00168046      -0.00900906      -0.01949073      -0.00294867      -0.06514309      -0.04842079
H       11.87836074       9.84587478      12.96374320      -0.16392501      -0.55247940      -0.69652503      -0.18816614      -0.55702136      -0.70821742       0.08973174       0.02083915       0.04886892       0.00786231       0.00522567      -0.04773663      -0.00790681      -0.02325909      -0.02236708
H       12.92803001       9.84293174      11.55631255      -0.17797771       0.24505899      -0.18533982      -0.15421353       0.24367822      -0.18303617      -0.17169696      -0.05119923       0.03012242       0.00204707      -0.05079685       0.01603333       0.02603905       0.04539648       0.07407474
H       10.93073081      10.42801093      10.15071678      -0.05390898       0.16291752      -0.67209267      -0.03307855       0.15250054      -0.67791589       0.04708075      -0.01184772       0.00252283      -0.02177876       0.01701258      -0.01828197       0.01085340      -0.04046055      -0.06590207
O       10.77062416      16.06482695      12.82162475      -2.55226802       1.27984771      -1.92164417      -2.60252946       1.28040679      -1.90464630      -0.37080642      -0.10015393       0.04435082      -0.11283519      -0.68215829      -0.07779650       0.05687457      -0.09202761      -0.42126508
H        9.84021949      16.50851439      12.98866462       3.03667475      -1.39214408      -0.80355703       3.05303831      -1.38922526      -0.79247174       0.10257353       0.10992416       0.01582156       0.09103010       0.27925228       0.00538919      -0.03436391       0.02767432       0.24803270
H       10.89557075      16.04381179      11.80119323      -0.44415783       0.07202944       2.74165183      -0.41045965       0.06247450       2.72919022       0.26713397      -0.04109174      -0.08874769       0.00602227       0.43600039       0.07337455      -0.04747141       0.05411033       0.16841823
O       13.98565864       6.31087303      10.30187606       0.05382760       2.19343944       1.87319694       0.05083054       2.17071661       1.91979341      -0.73870098       0.12279735       0.03757323       0.07193373      -0.80289661       0.21171187       0.01666841       0.17261621      -0.43598229
H       13.79753589       7.24983930       9.85792446       0.44297657      -2.71393943       1.78135842       0.44781935      -2.66644709       1.73506973       0.32872967      -0.18631503       0.03478680      -0.15083782       0.80040137      -0.25201524       0.02925296      -0.26697690       0.32713433
H       14.06020354       6.41732692      11.33702468      -0.39654491       0.06411525      -3.54997358      -0.38334579       0.03417474      -3.54085681       0.34854091      -0.02600394      -0.04366197      -0.00566599       0.22888407      -0.09584751      -0.01582978      -0.04884021       0.04074052
O        5.48160552      10.07428645      11.17020034      -1.13380879       1.49917563       2.93689854      -1.20030962       1.44740134       2.86408097      -0.84020771      -0.03034424      -0.17191821       0.01323904      -0.54670029       0.28220947      -0.16104625       0.15773451      -1.01348304
H        5.91072320       9.53637695      11.93749237      -0.87821249       1.02155746      -1.26007204      -0.90215355       1.08995767      -1.27684556       0.52112869      -0.08233789       0.32524213      -0.10385360       0.36337301      -0.31246245       0.28165464      -0.26432444       0.71322211
H        5.01087188      10.84164046      11.67819404       1.49890812      -2.12052244      -1.53660269       1.49552468      -2.10209001      -1.48387052       0.34953359       0.06179966       0.02612614       0.04624811       0.25930042      -0.01547821       0.06215183      -0.04875224       0.17067155
O        7.06400871       5.95898151      10.06213760       1.08552175      -1.02849113      -2.84115967       1.15516717      -1.04994360      -2.74980633      -0.62070746      -0.16824377      -0.09775160      -0.16333789      -0.61815801       0.10935835      -0.13064635       0.21466262      -0.67535655
H        7.08731651       6.33145809       9.07295226      -0.05834362      -1.18474212       3.20275793      -0.10260395      -1.11765988       3.11244973       0.28324606      -0.02752158       0.18662799      -0.01947153       0.46268445      -0.26682367       0.18662077      -0.27160843       0.64219437
H        7.49817847       5.05790233       9.97139549      -0.84032844       1.82035877       0.35302284      -0.87635176       1.81156974       0.31218939       0.25936297       0.10361532       0.02281177       0.09006233       0.12116493      -0.01266935       0.04088434      -0.09273924       0.21965831
O        5.89147329      10.19126033       8.59058952      -0.30062908      -1.38977096       0.32279795      -0.28223639      -1.41457008       0.34038954      -0.85613873       0.05703921      -0.06677924       0.06551639      -0.43753919      -0.02217265      -0.04320297      -0.09168573      -0.99953001
H        5.66684246      10.26383495       9.59376048       0.53677304      -0.80336710      -2.03705325       0.58116974      -0.79451690      -2.02773539       0.35403536      -0.01795319      -0.05279862      -0.03045441       0.18883869       0.00396681      -0.06521362       0.11474884       1.01359138
H        5.89157581       9.22450256       8.30446338      -0.16525429       2.09773718       1.19790986      -0.17514027       2.07639552       1.20133585       0.32425472      -0.06132333       0.04674647      -0.02858159       0.22290637       0.04016739       0.05624819       0.06267630       0.24047774
O        8.41982174      11.87737941       6.83338642       0.36653845      -2.66769349      -1.57017667       0.37182920      -2.64917970      -1.59642949      -0.49731041      -0.03917092      -0.00348779      -0.03759323      -0.41859820       0.23384385       0.01063730       0.20153809      -0.64744281
H        8.95281982      11.02807235       6.52872085      -2.08758411       2.80828286       0.84094327      -2.08526687       2.80916022       0.85750308       0.24337063       0.05548625      -0.00982759       0.07442787       0.12831602      -0.09322363       0.02704785      -0.09166837       0.33284527
H        7.49431324      11.78729247       6.45761966       1.80558946      -0.13961690       0.81353351       1.82223581      -0.11754558       0.79838165       0.24221903      -0.01746218      -0.04221065      -0.02826178       0.27082583      -0.10730066      -0.08512415      -0.09119953       0.32007812
O        6.95146083      12.82912063      12.86710357       0.92849224       0.67921606      -0.94661755       0.91564373       0.73286883      -0.97903208      -0.69094971       0.18678411      -0.02411383       0.17231536      -0.72116782      -0.16083178      -0.06595652      -0.10822021      -0.56569680
H        7.05694580      13.66618346      12.30201244       0.29947102      -2.44280451       1.29622273       0.27593725      -2.44498018       1.28813034       0.26630525      -0.05381317       0.05133241      -0.03088185       0.23445304       0.07621442       0.03481945       0.09911982       0.21289342
H        7.73740577      12.18260764      12.79551696      -1.45948366       1.88281239      -0.48896559      -1.42830591       1.81936058      -0.45690700       0.50170664      -0.30203897      -0.11341339      -0.27490501       0.54282277       0.12838389      -0.00752417       0.02678046       0.29902630
O       13.40072536       8.73711490       9.38014411       0.35662480       1.70383146      -1.71295981       0.35399928       1.70556583      -1.76105590      -0.89431449       0.02816687       0.06321327       0.00444708      -0.97126599      -0.01093398       0.03150837      -0.03773428      -0.50071124
H       13.02351760       9.02986431       8.50354099       0.84407436      -0.57464830       1.47906890       0.81477492      -0.59790605       1.48815314       0.28894526      -0.03824681      -0.02873885      -0.01944061       0.24734452       0.10745742      -0.05076803       0.08559595       0.25116686
H       14.25466537       9.28008174       9.51947307      -1.61420708      -0.80045938      -0.26265445      -1.58874287      -0.76834407      -0.23670191       0.76853431       0.32243676       0.02812510       0.31583799       0.54482979       0.06681138       0.12089833       0.14115617       0.22377248
O       11.38622760       5.77043056      12.62333679       2.09845262       0.33424558       0.55146976       2.05668946       0.38774347       0.52105974      -0.33756374      -0.03470240       0.09549038       0.05516331      -0.80621512       0.06229208       0.07309889       0.09207755      -0.67897146
H       11.51769161       6.72384500      12.35778713      -0.07026794      -1.42311901       0.32824207      -0.05414706      -1.45155436       0.34480117       0.20764586      -0.04367062      -0.03385969      -0.07468068       0.72407984      -0.15673627      -0.01359461      -0.24705612       0.35790358
H       12.29463767       5.42682647      12.90068530      -2.08386612       0.87014442      -0.75264672      -2.07577010       0.86336375      -0.74421336       0.04450949       0.06169086      -0.07354287      -0.01190546       0.28149634      -0.01542210      -0.07056472       0.00520976       0.31161482
O        6.59393549       7.15970039       7.83818054      -1.62140262       0.10716837      -3.91943950      -1.61120407       0.07539126      -3.86245974      -0.46870818       0.11264670      -0.07896926       0.06971703      -0.77001538       0.04651200      -0.06084382       0.07287625      -0.53845140
H        7.06979274       7.48116970       6.99291944      -1.19136461      -0.86948946       2.09219889      -1.17515696      -0.85929080       2.08837101       0.27278132      -0.00498745      -0.02287591       0.00349379       0.33080979       0.07287655       0.01107814       0.07950890       0.19631458
H        5.70665121       6.75087928       7.49048471       2.57804830       1.17338063       1.02880455       2.56883035       1.16219247       1.01064297       0.29882232      -0.00286581       0.00036141      -0.01345848       0.33766338       0.02099855      -0.04248546      -0.00554678       0.23152115
O       13.99784564      10.46288680      14.64857291       0.78484482      -1.87595973       1.54923231       0.72441793      -1.86023204       1.58476965      -0.58541421      -0.06245617       0.01500832      -0.11447275      -0.49538353      -0.14757860       0.05462992      -0.08825050      -0.58949609
H       14.78126048      10.14548492      15.21169757      -1.95630839       0.81941313      -1.31346887      -1.93194566       0.78864942      -1.33282124       0.20608304       0.02112047      -0.05405618       0.08130768       0.23110804       0.10208615      -0.09492608       0.06658148       0.19909193
H       13.22973727       9.89559554      14.95356082       1.26365148       1.38510059      -0.33529157       1.28704592       1.38594781      -0.37220433       0.46494038       0.11659583      -0.05520773       0.07442585       0.22698525       0.01972274      -0.07292403      -0.02600972       0.36595857
O       15.47591781      12.68016433       8.46067905       2.02438419      -0.68993227       1.76476185       2.00552578      -0.67106388       1.77124492      -0.69356117       0.10890806       0.10147568       0.09395006      -0.88034616       0.21087915       0.09274257       0.21756216      -0.65388310
H       15.46354483      11.69484138       8.81911850       0.43615890       3.16309126      -0.61885236       0.42456147       3.17146814      -0.60769931       0.27549887       0.03475899      -0.09929814       0.00761256       0.72272926      -0.22881320      -0.10350552      -0.25866370       0.39668181
H       16.20632362      13.26025771       8.92976665      -2.44468785      -2.28090520      -1.18680824      -2.45462059      -2.27520475      -1.20230549       0.28200648       0.00124122      -0.10355877       0.01450801       0.26524019       0.01715260      -0.10300562       0.01199765       0.27811231
O       13.20361136      16.01464080       9.24398040      -0.34101675      -1.80747480      -1.15456338      -0.37832940      -1.81614854      -1.18129577      -0.71638549      -0.03853325       0.07311845      -0.01408953      -0.70857125       0.11481752       0.11605098       0.14309922      -0.73236031
H       13.01639747      15.71410369       8.28214073       0.16941401       0.60720968       3.06669611       0.18198328       0.58327484       3.06638313       0.36800462      -0.05579736       0.01918460      -0.07188842       0.27621562       0.01193383      -0.00181393      -0.00380286       0.32920650
H       13.03435229      15.20723533       9.83450794       0.08663053       1.56273813      -1.43381675       0.08884733       1.55314728      -1.43557678       0.36532493       0.16663496      -0.09938980       0.10620190       0.47011648      -0.17514103      -0.11848422      -0.28625443       0.40643136
O       15.47717570      10.30243110       9.86961459       2.16182997       0.42620180       2.66852842       2.15703530       0.39000562       2.61699609      -0.68551423      -0.16138805       0.06708315      -0.16531590      -0.89449388       0.12366596       0.02999562       0.15946694      -0.55045100
H       15.40044974      10.76794528      10.81379699       0.45450367      -1.48190999      -2.93461278       0.43130315      -1.45323233      -2.88253412       0.34406649      -0.01413413      -0.06095220      -0.00676658       0.38614020       0.02066988      -0.04113773      -0.01412899       0.35298746
H       16.40814208       9.88197707       9.79452514      -2.32513546       1.11715918       0.50901571      -2.35410582       1.11346561       0.51533817       0.32736555      -0.02095556      -0.03782464      -0.03527174       0.34496726      -0.01491101      -0.06122900      -0.00476668       0.28250751
O        7.85728263      10.88439845      15.00613307       0.00713883       2.02741531      -0.69781299       0.03351333       2.04586130      -0.72130016      -0.72606286      -0.03943769       0.10703763      -0.13906620      -0.53054288      -0.08220073       0.07415670      -0.14723386      -1.03290125
H        8.55294227      11.18874072      14.29076194      -2.02763448      -0.56492357       2.06847851      -2.05542740      -0.57174685       2.09319220       0.49607809      -0.04798990      -0.26819974      -0.02740370       0.22806580       0.05259225      -0.30721974       0.06237565       0.89706961
H        7.25909233      11.66930579      15.27790068       1.84596675      -1.87777150      -1.12492453       1.83228371      -1.90654959      -1.12237777       0.26616669      -0.00602070      -0.00278209       0.02333520       0.20840314      -0.00080970      -0.00507360      -0.00955258       0.38460330
O        6.64591551       8.96739959      13.19286536      -0.08531478       0.33323874       2.78809237      -0.04570144       0.21897344       2.78819425      -0.78206088      -0.04005721      -0.20858388      -0.11445072      -0.73168563       0.09189109      -0.18403345       0.03966445      -0.82342503
H        7.13644027       9.66681385      13.78557967      -1.21171011      -1.33665523      -0.81245959      -1.21307412      -1.29497026      -0.74052497       0.42836611       0.16375349       0.10209805       0.21824643       0.52486430       0.20468386       0.12186260       0.22364144       0.45127426
H        5.98849058       8.50465774      13.80065917       1.53917153       0.98332105      -1.25431205       1.51459762       1.03034345      -1.22238095       0.28071931      -0.01999596       0.01642466       0.01937727       0.34035160      -0.04845926       0.05162721       0.01831345       0.21588206
O       13.84447287      14.29082393       6.99379539       2.28426140       1.14314595       0.34260066       2.27965971       1.21015912       0.35694919      -0.74683431       0.27905782       0.04251081       0.32964033      -0.73522818       0.08367300      -0.00657374       0.20584363      -0.82845891
H       14.42786406      13.62903403       7.52239942      -1.07839029       1.45852541      -0.92090445      -1.05228294       1.43560434      -0.87782717       0.45390195      -0.27158235       0.12054936      -0.29810258       0.55481291      -0.22976410       0.14476862      -0.28490015       0.49290662
H       14.36734389      15.17127513       6.97436571      -1.09345063      -2.51568286       0.12771273      -1.11921501      -2.54665123       0.10791316       0.22414094      -0.06246158      -0.06957836      -0.03918228       0.21988235       0.00370816      -0.09569054      -0.02606903       0.36716285
O       11.32338332      15.66869925       6.90221595       1.89851551      -1.95681927      -1.22854717       1.94290516      -1.96421777      -1.24702033      -0.65130823       0.12322736      -0.10443077       0.11666763      -0.54978340       0.23837724      -0.00989602       0.24762352      -0.69493650
H       12.15298843      15.08808326       6.59627676      -2.90650018       1.47048532       0.88983333      -2.90801757       1.48690115       0.89824909       0.53403530      -0.13116055       0.07759401      -0.13687277       0.28145219      -0.10451292       0.06755021      -0.12936403       0.36719193
H       10.51669120      15.19828795       6.61688137       0.90094282       0.23744011       0.14741740       0.89808872       0.22094580       0.15690519       0.21258063      -0.05787312      -0.00372210      -0.06159243       0.23748985      -0.09883470      -0.04090779      -0.10436299       0.29999325
O       11.77607059       9.13181781      15.79219054       0.06321665      -3.29910461       0.43731465       0.03048585      -3.30104787       0.44179918      -0.63115644      -0.09741693      -0.00781931      -0.03101374      -0.32438971       0.00546666       0.01006265       0.05794181      -0.75411146
H       10.90195560       8.81957244      16.22791861       2.47702432       0.53632303      -1.27649298       2.46133586       0.54717243      -1.26173538       0.28621644      -0.04248951       0.03982164      -0.08273820       0.21807137       0.03664852       0.05011291       0.01898378       0.37123680
H       12.39545345       8.29399872      15.63208102      -2.66788972       2.40562503       0.82972591      -2.62696927       2.39752716       0.80508200       0.25333467       0.05649850       0.03315202       0.06084980       0.17929562      -0.00857340       0.02282992      -0.02166757       0.34138615
O       14.77786635      13.82663917      11.82421874      -1.92395959       2.10235500       0.06500828      -1.94958669       2.15325207       0.04893919      -0.80749840      -0.13124525      -0.07138680       0.05257546      -0.39064595       0.00057731      -0.09426559      -0.05169824      -0.70686736
H       15.27345656      14.67211531      11.86870765      -0.32641962      -0.96146694      -0.02227470      -0.31335891      -0.98652477      -0.03748411       0.24329939      -0.00618178       0.01241670      -0.06639994       0.11766525      -0.01095707       0.02520910       0.00885433       0.33071376
H       13.79734992      14.18913745      11.79547405       2.53959606      -1.34960347      -0.04942304       2.49709496      -1.35080649      -0.08429493       0.70148609       0.22823807       0.14392120       0.07976069       0.23876032       0.01130322       0.19405089       0.09327294       0.36141271
91
Properties=species:S:1:pos:R:3:forces:R:3:MACE_forces:R:3:bec:R:9 smiles="[H:31][C@:13]([C:4](=[O:2])[N:5]([H:14])[C:8]([H:19])([H:20])[H:21])([C:12]([H:29])([H:30])[C:11]([H:28])([C:9]([H:22])([H:23])[H:24])[C:10]([H:25])([H:26])[H:27])[N:6]([H:15])[C:3](=[O:1])[C:7]([H:16])([H:17])[H:18].[H:33][O:32][H:34].[H:36][O:35][H:37].[H:39][O:38][H:40].[H:42][O:41][H:43].[H:45][O:44][H:46].[H:48][O:47][H:49].[H:51][O:50][H:52].[H:54][O:53][H:55].[H:57][O:56][H:58].[H:60][O:59][H:61].[H:63][O:62][H:64].[H:66][O:65][H:67].[H:69][O:68][H:70].[H:72][O:71][H:73].[H:75][O:74][H:76].[H:78][O:77][H:79].[H:81][O:80][H:82].[H:84][O:83][H:85].[H:87][O:86][H:88].[H:90][O:89][H:91]" total_charge=0 energy=-58333.75666948974 config_type="Solvated Amino Acids" MACE_energy=-58333.57188829979 dipole="-0.1773019133511406 1.554880949254803 -2.12847956053" pbc="F F F"
O       12.75272750       7.86064624      12.06736659       0.02386383       0.56588110       0.03436924       0.09375083       0.53631793       0.01315168      -0.79964539       0.26078090      -0.01559608       0.57296502      -1.66191409       0.43285278      -0.09828884       0.48567253      -0.79104239
O       10.35006999      11.57709216      13.30832958      -0.74813388      -1.99295920       1.94681327      -0.77199620      -1.99983463       1.95783104      -0.52795000      -0.22279585       0.17338502      -0.11329929      -0.78091167       0.13903852       0.26151803       0.44276773      -1.60043644
C       12.48576163       9.00685882      11.68316363       0.00861811      -0.44988177      -0.08053383      -0.04991353      -0.46744134      -0.02720347       1.73841775      -0.71087858       0.30030368      -0.37468349       1.52848895      -0.47721811       0.10453471      -0.40888827       0.43312957
C       10.73237991      11.73884963      12.17424296       0.14746041       1.50839351       0.79373367       0.20150980       1.49409968       0.82631682       0.47155852       0.53119963      -0.51378181       0.57900260       1.48470007      -0.23029019      -0.28614856      -0.18883636       1.24347051
N       11.23796462      12.99599646      11.99716091       0.43274172      -0.23920765      -1.97221289       0.40891331      -0.21484580      -1.95029778      -0.52189742      -0.22434066       0.20448750      -0.32975128      -1.20324528       0.42968718      -0.01029961      -0.11594182      -0.42153036
N       11.16238975       9.34768295      11.55861759       1.73260977       1.65452668      -0.34993472       1.71120107       1.69864602      -0.39938136      -1.27892445       0.64208547      -0.28782197       0.05677463      -0.60305972       0.02974616      -0.11197714       0.08783284      -0.47758265
C       13.64184188      10.00280952      11.37706947      -1.37179599      -1.40135058       0.22321497      -1.37079144      -1.37031017       0.20195872      -0.17428296      -0.06717201       0.02229942      -0.08084893      -0.18350959       0.04762118       0.03442539       0.05041549      -0.02574745
C       11.56620025      13.60478591      10.69699764       1.60135681      -0.03730550       1.83768849       1.62224353      -0.04939127       1.84246262       0.19904847       0.04677723      -0.10351499       0.04087330       0.30533266      -0.10426056      -0.07307915      -0.19301034       0.40101781