12
Properties=species:S:1:pos:R:3:forces:R:3:MACE_forces:R:3:bec:R:9 energy=-8324.384630184995 config_type=water MACE_energy=-8324.376788606767 dipole="0.5512853727436816 0.029933791306213778 1.0960942601003643" pbc="F F F"
O        3.80511900       4.25317300       4.19637100       0.09089516      -0.54360683       0.48591114       0.09310008      -0.55871372       0.47811033      -0.48382650      -0.06156976       0.05230198      -0.05421599      -0.54832505      -0.16298348       0.01743664      -0.17998210      -0.60418333
O        4.46319100       8.72273700       4.76422600      -2.67036516      -1.45411577       0.75835718      -2.68151587      -1.44568312       0.76308395      -0.44940247       0.14607005      -0.05366686       0.13751421      -0.61421303       0.02281752      -0.07866431      -0.00216841      -0.31618683
O        8.08797000       7.38451300       7.44830000       1.36670399      -0.07188984       0.57169057       1.36840822      -0.07222592       0.55915138      -0.38296466      -0.03024617      -0.01240782      -0.01541667      -0.66727307      -0.05603623      -0.05566863      -0.10311341      -0.50667581
O        6.52819400       5.42834200       5.50637800       0.79354908       0.65372027      -0.55646668       0.80426084       0.68163888      -0.54823904      -0.62844561       0.01561247      -0.16181883      -0.00357982      -0.57419127       0.00809404      -0.19467724       0.01466524      -0.44703760
H        4.71566000       4.56811300       4.14491000      -0.09616173      -0.02161759       0.09016045      -0.10010261      -0.01247638       0.10089206       0.23690410       0.02959568       0.01213345       0.06307672       0.33544583       0.07061984       0.03137714       0.07778651       0.35816870
H        3.83125600       3.47653300       4.78436200       0.06376492       0.63755216      -0.53215394       0.07069808       0.64985276      -0.52891225       0.26748552       0.06108611      -0.04932823       0.02596134       0.21333873       0.10884558      -0.01937754       0.12131007       0.24044838
H        4.68707900       8.94346700       5.66030100       0.81711524       0.53352408       0.51487757       0.83143069       0.51986679       0.51480034       0.27794351      -0.04528763       0.01867974      -0.04994294       0.32545253      -0.01777902      -0.02938494      -0.03998723       0.08235655
H        3.59771300       8.24176300       5.00714400       1.87181807       0.91518269      -1.27248930       1.87794382       0.91093043      -1.27464893       0.17170558      -0.09814475       0.03196015      -0.08525911       0.29152724       0.00631384       0.10480772       0.05390242       0.23018540
H        8.82228700       7.52782300       6.82851300      -0.57255569      -0.00705579       0.02206936      -0.57027402      -0.00426263       0.02780867       0.17743936      -0.00848070       0.06178879       0.00541911       0.35432230       0.01983478       0.02187843       0.01878361       0.25382735
H        8.59643600       7.23025000       8.27509000      -0.86667013       0.07835836      -0.67888542      -0.87024287       0.07936105      -0.67501555       0.18907135      -0.00002355      -0.10251536      -0.01574845       0.32309297       0.00800556      -0.03210016       0.02773972       0.23536056
H        5.94099300       5.22130800       6.19077400      -1.96773088      -1.67953162       1.17600467      -2.10078520      -1.81671901       1.20526048       0.26113019      -0.03470400       0.10745186      -0.01196539       0.28280813      -0.01622629       0.16022002       0.04203718       0.18710840
H        6.80247300       6.20709100       5.98785400       1.16905399       0.95914994      -0.57935670       1.27707885       1.06843086      -0.62229143       0.36272937       0.02572272       0.09514415       0.00381187       0.27799343       0.00827502       0.07373051      -0.03135891       0.28623049
33
Properties=species:S:1:pos:R:3:forces:R:3:MACE_forces:R:3:bec:R:9 energy=-22893.759676900838 config_type=water MACE_energy=-22893.793593266982 dipole="0.48202699135208765 -1.2992221880666797 0.17154552262787895" pbc="F F F"
O        6.50626400       6.64685900       2.54988300      -1.04475252       0.87677076      -1.74077820      -1.07459261       0.88540703      -1.73940315      -0.41189650      -0.05459288      -0.10552833      -0.07736563      -0.72553643       0.08249210      -0.04547907       0.04555561      -0.78717567
O        4.81666100       5.85581900       8.93071400      -0.09939271       0.08179758       1.67295433      -0.05771806       0.04808967       1.68450539      -0.68348974       0.13591165       0.02670731       0.17104520      -0.75917233       0.02401928       0.03649859       0.03366177      -0.52896745
O        9.19786400       5.85664900       8.06185700      -2.23520116      -0.05816121       0.82079361      -2.27770590      -0.07813129       0.79550721      -0.91418496       0.05569043      -0.11048312       0.04185082      -0.73203723      -0.14366794      -0.13266344      -0.11434257      -0.45834602
O        6.64871300       3.59386500       8.11879400      -1.35614807       1.32006875      -0.00146515      -1.38002918       1.32746767      -0.00731143      -0.56169444       0.17255024      -0.12601458       0.17285308      -0.60854299       0.04441647      -0.10771307       0.04139685      -0.75694240
O        2.74664900       7.58589300       7.27073900       0.03663047       0.74580779      -0.48902704       0.05336841       0.75592761      -0.51457936      -0.48212668       0.09091158       0.00717749       0.06616418      -0.53720623      -0.04538636      -0.01397558      -0.04466541      -0.68958770
O        7.10711600       5.37458900       4.88432300      -2.12822813      -1.32731684      -0.69871138      -2.18006826      -1.33700682      -0.69878552      -0.59802639       0.14856661      -0.10519645       0.17306034      -0.61078988       0.06065328      -0.02189819       0.02841451      -1.04611586
O        3.88150300       9.64640200       9.37185300       1.32966578      -0.28985876      -1.17196667       1.34970901      -0.30127497      -1.21713386      -0.48123144      -0.04585734       0.16767944      -0.03961804      -0.71796264      -0.08850842       0.15112736      -0.09068732      -0.56009183
O        5.98365800       9.44074300       7.26464800       1.01950554       0.08249180       0.63315307       1.01778181       0.05242349       0.60866426      -0.51263690       0.08457613       0.19948282       0.04543714      -0.75458876      -0.02348365       0.19463923       0.00427267      -0.70750669
O        8.59878100       3.15464000       5.73716000       2.41374883      -0.41310623      -0.83227593       2.38198793      -0.38518563      -0.85205741      -0.44603625       0.02483382       0.03615215       0.11312665      -0.79724981       0.04919363       0.06788819       0.04687218      -0.57384804
O        8.34338400       3.34384900      10.23015100      -0.23561695      -0.06301050      -0.38388000      -0.25521280      -0.04619636      -0.38323358      -0.70888354       0.12735004      -0.03324261       0.07459181      -0.33414475       0.01372246      -0.04709779       0.08211025      -0.72512351
O        6.85509300       6.68688500       7.24149800      -0.59546799      -0.18823789      -0.44605539      -0.59781320      -0.14267396      -0.47422195      -0.94692124       0.24725686       0.07063804       0.25493857      -0.87575511      -0.08624674      -0.00953874      -0.04349412      -0.86771477
H        6.72768900       6.27979500       3.37966400       0.90651493      -0.48320137       1.16988876       0.93370068      -0.49170510       1.14306115       0.21330844      -0.01287627       0.06725875      -0.00397889       0.38256795      -0.17547297       0.03953122      -0.13295377       0.60218644
H        7.25601400       6.61822900       1.95970700       0.18225531      -0.12542603       0.22348880       0.18819488      -0.12858996       0.23247701       0.13978179       0.03187493       0.09379870       0.05269175       0.32481231      -0.00961011       0.03602117       0.00986386       0.28972571
H        3.98647200       5.35600600       9.08452200       0.75390423       0.75763925       0.07848326       0.72384774       0.76857512       0.09088795       0.33834091      -0.04840044       0.02865854      -0.04859906       0.36245297      -0.02377470       0.07562869      -0.00846704       0.24524357
H        5.10125300       6.27340200       9.80347900      -0.79612722      -0.97198149      -1.76616121      -0.79608599      -0.98304688      -1.77734902       0.29757317      -0.02267398       0.04546270      -0.02876844       0.36764404       0.00887389       0.01357083      -0.00543569       0.28572639
H        9.67335100       6.08451200       7.29056700       0.73671266       0.44390468      -1.09050418       0.73419473       0.44491169      -1.06460893       0.27055569       0.02193357       0.04388977      -0.00271753       0.28268014       0.09959004       0.09477314       0.07957768       0.09790033
H        8.23811100       6.17381200       7.88530500       2.14401419      -0.55077656       0.40015898       2.18621637      -0.52862527       0.40191049       0.86939067      -0.20237058       0.12868501      -0.16294523       0.34937557      -0.00932564       0.17754822      -0.03503970       0.27514550
H        6.10424600       2.81916900       8.21874600      -0.13667495      -0.58193870      -0.12650703      -0.11731494      -0.59604200      -0.12240161       0.20395506      -0.06594613       0.04112156      -0.01717166       0.24398947       0.00822569       0.04535137       0.02757600       0.33233444
H        5.99937200       4.32045100       8.34701000       1.25125820      -0.86454168      -0.17894963       1.25464499      -0.86976609      -0.14511305       0.31355945      -0.12073005      -0.03103328      -0.17296415       0.50749593       0.02672860      -0.06472323       0.03915708       0.30783382
H        3.61467000       7.28229300       7.55605000      -0.13901987       0.42168350      -0.01403368      -0.16118030       0.40857369      -0.00573088       0.17678666      -0.03937200      -0.01980665      -0.05770333       0.32542034       0.00227028       0.02474984      -0.02049389       0.34869418
H        2.84332000       8.53046200       7.00884100       0.07505882      -1.24866673       0.50797185       0.07904159      -1.23469335       0.51937000       0.29127489      -0.06860895       0.02201724      -0.04588732       0.21055763       0.03648021       0.02419174       0.05618515       0.36346153
H        7.88480600       4.84187500       5.03875800       0.59500726      -0.72916202       0.11487359       0.60267067      -0.74220070       0.12895502       0.41427663      -0.18214139       0.06636606      -0.19540815       0.45387136      -0.10354493       0.06223084      -0.10161592       0.36995732
H        6.41565000       4.68673200       4.59804800       1.58589329       1.56119096       0.81331598       1.62114439       1.57148219       0.80964106       0.30419647       0.01467421       0.02440550      -0.03636048       0.25712274      -0.05831776       0.00930480      -0.04135535       0.37468631
H        4.37032800       9.47147000      10.17223700      -0.05944673       0.06916390       0.43484139      -0.05505633       0.07249000       0.43068636       0.16665261       0.03382683      -0.13809886       0.03164529       0.31550306       0.05937047      -0.07279724       0.04392834       0.17102056
H        4.60061600       9.53756600       8.68237700      -1.10666815       0.31979787       0.69685384      -1.12214024       0.32146738       0.73868648       0.37400440       0.01646304      -0.14416977       0.02334720       0.31925747       0.03525360      -0.18629515       0.04968804       0.41993061
H        6.34094100       8.52643100       7.25299300      -0.11862943       0.49039500      -0.14740764      -0.12070584       0.49171061      -0.13024892       0.24479382      -0.08330311      -0.03954783      -0.13232020       0.70062732       0.06751959      -0.03946454       0.03141674       0.28927548
H        6.73827400       9.99512300       7.56780000      -0.93201363      -0.65273711      -0.42435070      -0.93042726      -0.63962494      -0.41905703       0.17135610      -0.05395298      -0.05526110       0.01324607       0.29204126      -0.01974442      -0.05300727      -0.03763609       0.30225657
H        8.54106000       3.39347700       6.66772500       0.14181130       0.02906265       0.19323509       0.18320549      -0.00383691       0.20322682       0.31232965       0.01664044      -0.11004378      -0.01061700       0.39797734       0.02935896      -0.08319467       0.00302237       0.35152931
H        9.57741100       2.93978000       5.54305700      -2.52616351       0.57357677       0.73809142      -2.51764073       0.56834998       0.73367625       0.18617436       0.01805428      -0.00029857      -0.00346733       0.33760237       0.01161930      -0.05791188       0.02691094       0.28751659
H        8.31175000       2.42487700      10.46029300       0.27362670      -0.61646782       0.62164945       0.27146768      -0.60782403       0.60322174       0.29693569      -0.07637471      -0.00221588      -0.01545876       0.04243492       0.05975110      -0.02078437      -0.02412481       0.28731881
H        7.83145400       3.31924900       9.40479300       0.22539753       0.71445006       0.17291601       0.22948342       0.70357028       0.16941227       0.44867563      -0.08787140       0.15594634      -0.08538128       0.24658698      -0.12959585       0.15752819      -0.11460121       0.47934690
H        6.06114700       6.26412700       7.59421300       0.05257213       0.26984422       0.16088796       0.03962380       0.28276481       0.17567578       0.44284237       0.00774498      -0.15721277      -0.02392172       0.32614180      -0.06148791      -0.21249715      -0.10955721       0.41131595
H        6.99763300       6.20271800       6.39648200      -0.21507373       0.40751402       0.05806955      -0.20659197       0.41321302       0.08167047       0.26982504      -0.08210517      -0.04800281      -0.07236884       0.40663151       0.25741347      -0.04228040       0.27457832       0.81000602
3
Properties=species:S:1:pos:R:3:forces:R:3:MACE_forces:R:3:bec:R:9 energy=-2081.0427600416715 config_type=water MACE_energy=-2081.0440551806223 dipole="0.0686931925085233 -0.06584424934459185 0.42798677669406615" pbc="F F F"
O        6.10366800       6.30175700       5.86087600       0.78249483       0.55908821       2.07849782       0.78026322       0.55557050       2.07667882      -0.60169283       0.10096579       0.06372718       0.09793920      -0.45662732      -0.04299275       0.07043113      -0.03021516      -0.30986709
H        5.86790200       5.56712600       6.44418000      -0.23343240      -0.17473867      -0.60306421      -0.23344373      -0.17431841      -0.60400939       0.31570560      -0.03953245      -0.00787774      -0.05180466       0.20593812       0.06467587       0.01835316       0.11621011       0.16646770
H        6.55209800       6.85287400       6.55912400      -0.54900274      -0.38415747      -1.47559430      -0.54681949      -0.38125209      -1.47266943       0.28599702      -0.06143381      -0.05584180      -0.04612969       0.25067464      -0.02166601      -0.08880230      -0.08602405       0.14340498
6
Properties=species:S:1:pos:R:3:forces:R:3:MACE_forces:R:3:bec:R:9 energy=-4162.308915968867 config_type=water MACE_energy=-4162.310943910022 dipole="-0.6437164191913132 0.046539804333331464 0.24624299105223268" pbc="F F F"
O        5.97500400       6.45244700       7.47755700      -0.85357544      -0.43614415      -0.01363973      -0.85193538      -0.43831340      -0.01581158      -0.42478695       0.09263822       0.10917835       0.09963481      -0.46068792      -0.10043722       0.12913631      -0.08655901      -0.73475475
O        7.32798600       6.02696300       5.01305100       0.22155756       1.23703897      -2.91252710       0.22405676       1.23141874      -2.89852738      -0.61774431      -0.17369379       0.08732008      -0.13074668      -0.45597849      -0.12620395       0.03665922      -0.04907935      -0.66256762
H        5.94935700       5.66111900       8.04139900       0.03713961       0.48408688      -0.35682070       0.03619493       0.48143725      -0.34693151       0.26790344      -0.05994456       0.03003930      -0.02876711       0.23359977       0.05912248       0.00019477       0.05007013       0.31866091
H        5.09201400       6.48881100       7.06282700       0.63484032      -0.03193697       0.46137367       0.63161957      -0.02799727       0.45911408       0.19832586      -0.03252273      -0.06982741      -0.06941945       0.29191403       0.02918654      -0.05173380       0.03207811       0.31689011
H        6.83879200       6.19269900       5.79361200      -0.66359072       0.32231368       1.45938028      -0.65986255       0.31626531       1.45615705       0.30916453       0.06488194      -0.10307205       0.05448976       0.22787686       0.02296529      -0.11317142       0.00064976       0.51694334
H        7.05721400       6.75888100       4.37860100       0.62382308      -1.57547057       1.36250452       0.61992667      -1.56281063       1.34599935       0.26732202       0.10866557      -0.05396491       0.07478691       0.16326228       0.11547999      -0.00146247       0.05284045       0.24555079
75
Properties=species:S:1:pos:R:3:forces:R:3:MACE_forces:R:3:bec:R:9 energy=-52032.68003654554 config_type=water MACE_energy=-52032.82416665703 dipole="1.715015439611859 -0.13691188533333987 -0.045247652860853305" pbc="F F F"
O       10.52757500      13.29979100      14.02860000      -0.82655638       0.98933129       1.61741251      -0.87142636       1.01218548       1.64000216      -0.87255782       0.02503613       0.08408915       0.02779464      -0.63753940      -0.26425632       0.07966146      -0.17326006      -0.83138470
O       10.85969900      13.62085000      10.27379600       0.32475873       0.69155860      -0.65870825       0.32386193       0.67241489      -0.66088276      -0.92001525      -0.17906279      -0.01958985      -0.17240064      -0.88702558       0.08187335      -0.03713049       0.00912115      -0.93689728
O       14.60298100      13.65519600      11.66606800      -0.58668576      -2.15373196       2.48428960      -0.61873737      -2.16106887       2.45357110      -0.74884249       0.12109626       0.14294877       0.07087921      -0.79165958      -0.00849504       0.14043624       0.05966158      -0.65740212
O       11.68712100      10.31234900       9.40083200       0.58839570       0.04435079       0.04890691       0.58128752       0.06424896       0.03680548      -0.78917936      -0.07570502      -0.00057612      -0.09462095      -0.75371714      -0.04505671       0.01072999      -0.05784321      -0.72632557
O       12.79385200      15.58402200      12.98860800       0.33060157       0.45656853      -0.23281253       0.27525974       0.48892048      -0.22557236      -0.67517947       0.09689197      -0.00929544       0.07158365      -0.53958049       0.07411538      -0.01293061       0.08634378      -0.82053503
O       14.03595500       9.58494600      13.73891700       0.89212914      -0.37872212       1.36573940       0.89151598      -0.37906069       1.32350337      -0.76370576      -0.20129837       0.07085387      -0.15532784      -0.76221602       0.00304319      -0.00436334      -0.06398362      -0.80656669
O       13.16727500       8.85677300      11.41514300       0.73329587       0.19093680       0.29774671       0.74636164       0.23513576       0.32053134      -0.50611146      -0.06112761      -0.15942573      -0.06224657      -0.72057551      -0.02723627      -0.10825306       0.02647870      -0.94529744
O       11.20280000       9.17905600      14.19652400      -1.54700357       0.34070000       0.89161005      -1.52877047       0.37881899       0.91112028      -0.69553752      -0.07948860       0.06730696      -0.04780981      -0.46551018       0.04065028       0.04341863       0.03719428      -0.74769266
O       14.30641700      11.41958000       9.11349800      -0.40855108       0.27960926      -1.27471417      -0.39083950       0.30674801      -1.28889224      -0.89122156       0.03862549       0.05009732       0.06073156      -0.71977518       0.08147517       0.00633431       0.07806794      -0.64253718
O        8.61352100      12.35972200      10.03449700      -0.18426818       0.09606877      -0.46874724      -0.22072904       0.13538939      -0.40491352      -0.79261956      -0.12002236       0.06460679      -0.19002853      -0.96151471      -0.16055448       0.10494186      -0.16962268      -0.57767205
O        8.12117500      13.45575900      12.48499700      -0.87907018       0.30005718      -0.33904074      -0.86610504       0.25093593      -0.27701829      -0.64694174      -0.03094148      -0.04337601      -0.06553216      -0.78970369       0.03047721      -0.05371554      -0.04237982      -0.87921733
O       14.68009600      13.64353600      15.08456500      -1.73902703       0.47767646       1.24316823      -1.75754537       0.43092787       1.26924885      -0.60529687       0.07603771      -0.01120735       0.03810237      -0.64319093      -0.11499994      -0.01638994      -0.13029437      -0.70344567
O       15.91881000      11.62674600      13.76424100       0.70511776       0.66510528      -1.47886022       0.70224370       0.64747111      -1.49935744      -0.78564239       0.03081360      -0.03464002       0.02095831      -0.80730763      -0.21029193      -0.06206304      -0.13693054      -0.64342529
O       14.04893700      14.17442400       8.62965500      -1.04509360       1.03463764       0.66120415      -1.08726703       1.06460805       0.67367696      -0.63530855       0.09626884      -0.03238404       0.07895830      -0.62413305      -0.08828220      -0.02041340      -0.08554827      -0.69990302
O       11.85049500      15.96759900       9.57031400       0.78619821       1.04086694      -0.68852557       0.79141842       1.00520888      -0.68799216      -0.80839454       0.07300305       0.03237951       0.11462991      -0.63044214      -0.08723466       0.03932460      -0.07336922      -0.56464095
O       16.42923200      10.92108000      10.96000800       0.93588970       0.28574715      -1.84333219       0.93951875       0.29647526      -1.85503521      -0.74709914       0.11853277      -0.16329350       0.13423350      -0.48311945      -0.08318328      -0.12859834      -0.01542499      -0.49260807
O       11.90763300      15.68658600      15.78028600      -0.73704549      -1.16465104      -0.01456500      -0.72889515      -1.19266750      -0.06173897      -0.62566112       0.14109624       0.11044200       0.13990292      -0.56841866       0.01739558       0.08452420      -0.03927700      -0.75821136
O        8.63639100      15.76198100      10.71086100       0.68005569       1.19478095       1.66543442       0.68821313       1.16937849       1.69480550      -0.60648078       0.21501658       0.05186118       0.20452693      -0.55565335       0.06505372       0.07006709       0.09100561      -0.46699832
O       14.64259100      16.45592100      10.70816800       3.31493848      -0.57056926      -2.16233377       3.29659061      -0.55941936      -2.18732761      -0.47267000      -0.12388626      -0.12445447      -0.12311889      -0.68557553       0.02812007      -0.15472787      -0.00965771      -0.43521426
O        9.58954000      10.46714400      16.44338800       0.26628020       0.51883181       0.79209674       0.24483632       0.52134711       0.75802567      -0.39487613       0.05680150       0.14396815       0.01886185      -0.71866087       0.14560766       0.11719583       0.11845342      -0.63065900
O       11.15601100      13.12001000       7.17036700      -0.41740570      -0.13845182      -1.12145714      -0.40041960      -0.14109049      -1.09591612      -0.36886753       0.03564850       0.02748302       0.01506878      -0.67437329       0.04594983      -0.03797285       0.02051620      -0.71449243
O        8.47549000       9.85132600       9.20624500       1.09981799      -1.48311664       0.42251963       1.09691325      -1.43659956       0.47116081      -0.55775589      -0.17720494      -0.04327870      -0.14157352      -0.77322154      -0.18869491      -0.05124894      -0.20852515      -0.53801793
O       12.78784400      13.65856200      17.41756100       0.80509637       1.11564627       2.02320736       0.76098274       1.11564389       2.04308097      -0.55432841       0.14468657      -0.11398447       0.13324620      -0.54862909       0.07500720      -0.07432806       0.10146297      -0.54625468
O        9.12431300      14.32377000      16.35539500      -0.51617605       0.97215417      -1.56410777      -0.50586764       0.94870953      -1.54770637      -0.73145782      -0.05144021       0.08336075      -0.08641811      -0.39263764       0.00104697       0.07406988       0.03591985      -0.53703234
O       12.04463000      12.26006000      12.24454200       1.28444210      -2.69928713       1.10155081       1.30136701      -2.69398806       1.13177752      -0.86301000       0.11263141       0.09952553       0.08543367      -0.56757929       0.13659962       0.07630959       0.13187216      -0.91708861
H       11.05199000      12.67963900      13.54184100       0.74484071      -0.58798114      -0.84247750       0.80216957      -0.61118017      -0.89602458       0.47734267      -0.12266007      -0.26753875      -0.09601305       0.31551894       0.17301386      -0.27140976       0.20304304       0.61095934
H       10.41900000      12.94653400      14.92248600      -0.22201406       0.18413656      -0.35322317      -0.23594206       0.17596174      -0.37245997       0.31203899       0.03113198      -0.08299524       0.00649192       0.32192157       0.10335733      -0.03356356       0.04131300       0.29546029
H        9.98597900      13.24584000      10.06602700       0.06178423      -0.01380029       0.39100373       0.11569477      -0.04809379       0.41538578       0.74631487       0.28191432      -0.01458647       0.32938910       0.44123086       0.08389221       0.01738405       0.08611677       0.32847527
H       10.81374800      14.58660600      10.11632300       0.04529316      -0.88629523       0.40963177       0.02574229      -0.86161087       0.43210877       0.39099665       0.14985357      -0.13302836       0.12295476       0.55680149      -0.04002677      -0.11476446      -0.03773908       0.31060135
H       14.41289300      13.84079700      10.77783800      -0.49587846       0.29086010      -2.04392886      -0.47782865       0.29404976      -2.02446313       0.23719418      -0.02552088      -0.05434970      -0.02881987       0.35786774      -0.03527930      -0.03283697      -0.04034903       0.36744988
H       13.97944000      12.89206400      11.93530200       1.07897575       1.79791915      -0.58722256       1.04167560       1.76945126      -0.58349711       0.52590386       0.05726211      -0.06329226       0.05918502       0.34039502      -0.02475020      -0.07346402      -0.07778653       0.33954766
H       12.00570600       9.66207900      10.05106300      -0.02173658       0.35990893      -0.26528097      -0.00177988       0.36251106      -0.25208901       0.29554167      -0.04364098       0.08584161      -0.06512583       0.34508761      -0.04594693       0.10782327      -0.05313522       0.40681973
H       12.51764800      10.79275900       9.15241100      -0.84273611      -0.46409963       0.22158454      -0.85969350      -0.50578659       0.24867359       0.54561803       0.14620931      -0.03949207       0.16073182       0.38205583      -0.00889684      -0.07536434      -0.00196558       0.31024920
H       12.11156700      15.00583600      13.32313800      -0.12789957      -0.39563277      -0.03402794      -0.14249818      -0.37087366      -0.06253581       0.30715610      -0.01110336      -0.00607842       0.00672204       0.24264397       0.01125465      -0.01670480      -0.01910074       0.39812374
H       13.28657000      15.09868800      12.31653600      -0.13161049      -0.23011438       0.26246389      -0.11427036      -0.23952925       0.27252051       0.37389571      -0.08706201      -0.08571657      -0.05875703       0.33461397      -0.01388584      -0.02868239      -0.01669824       0.34254741
H       14.75644600      10.23007700      13.57462500      -0.04601853       0.39187999       0.37578457      -0.05496610       0.40318184       0.39042810       0.46682998       0.28110784      -0.04452020       0.30100592       0.68136636      -0.01164159      -0.04420433      -0.00413663       0.28534463
H       14.33880300       9.08191900      14.53312500      -0.47051765       0.64597575      -1.17243120      -0.47497209       0.66768078      -1.16362772       0.28188866       0.00866505      -0.07838742      -0.03635948       0.30723984      -0.02439594      -0.03520232       0.01508460       0.23355948
H       13.90254400       8.35521500      11.04414300      -0.35507707       0.05588501      -0.12999492      -0.36121243       0.05400331      -0.15063712       0.15246627       0.08477413       0.03551551       0.03560228       0.31451310      -0.02729370      -0.01679168      -0.00553729       0.26994967
H       13.59805800       9.27767900      12.20577000      -0.61892597      -0.72239706      -0.64559234      -0.61517040      -0.71769109      -0.65647023       0.28815493       0.05458569       0.13626594       0.06439150       0.31639443       0.11783994       0.17043938       0.09547137       0.84841472