960
Lattice="21.30025472607008 0.0 0.0 0.0 21.30025472607008 0.0 0.0 0.0 21.30025472607008" Properties=species:S:1:pos:R:3:momenta:R:3:forces:R:3 mol_liquid.pdb=T energy=-501587.90625 free_energy=-501587.90625 stress="0.0002715709852054715 -0.0005614393157884479 0.001508769579231739 -0.0005614393157884479 0.0026293459814041853 0.0008384229149669409 0.001508769579231739 0.0008384229149669409 0.0015439890557900071" pbc="T T T"
N        8.72072376      20.77891281     -21.33037742       0.23157362       1.03854405       1.01784662      -0.26514596      -0.44608721      -0.69109267
C        7.73770627      20.34888809     -22.36456424      -0.72653947      -0.65361891      -0.24597459       1.30158961      -0.44928575      -0.24416611
C        8.34590569      22.00219890     -20.66935515      -0.20160008       0.58109351       1.93625475       1.57223177       0.70329458       0.97823662
C        9.87080577      20.10207422     -21.01245723      -0.41087734       0.65959912       0.40934290      -0.74686581       1.54313493       0.11262771
H        8.10050499      20.38760526     -23.41070143       0.09276945      -0.10116012       0.10293217       0.18883009      -0.11188188       0.73075676
H        7.31339433      19.37599272     -22.15333852       0.09716076      -0.03310733       0.12502561       0.31511396      -0.29071087       0.07723230
H        6.92147107      21.01186330     -22.30703476      -0.19869921      -0.04505228      -0.27184148      -0.83372265       0.82340002       0.10717237
H        7.31006675      21.97925311     -20.46413829       0.12547540      -0.22844876       0.30720523      -0.91625607      -0.10220013       0.64909238
H        8.48442906      22.90850904     -21.25387951      -0.21710426      -0.20273617       0.16494477       0.31345230      -0.06956188      -0.65668511
H        8.97512988      22.18410917     -19.76486898       0.22113275      -0.07401624      -0.01487698      -0.80128151      -0.50563353      -0.65088618
C       10.27275605      19.06539995     -21.95061852       0.47779384      -0.10434565       0.72346286       1.44012105      -2.01197100      -0.37117460
O       10.57911993      20.43820332     -20.06855881      -0.00617162       0.13275396       0.64132548       0.08398677       0.11197761       0.37924913
H        9.61102958      18.23152332     -22.07630405       0.19139245      -0.16698457       0.02277652      -0.78364450      -0.19485019      -0.00088719
H       11.24038913      18.60109643     -21.71534546      -0.13065504       0.00987013       0.27299561      -0.28192955       0.42884386       0.59641260
H       10.45876555      19.44288192     -22.92285492      -0.28025787      -0.11043568      -0.01227305      -0.27556148       0.73534924      -1.04011345
N       -0.84430116       7.09286851      18.03148054       0.56082541      -0.22905643      -0.64530912       0.92529345       0.57619923       1.83490014
C       -1.40655049       5.84278760      18.65266000      -0.41466147      -0.16145829      -1.12474653       0.78744745       1.20682812      -1.71292591
C       -0.11186256       7.95060767      18.99589165      -0.60866410       0.31555511       0.88143388      -0.51580864      -1.49634111      -0.38802913
C       -1.04858890       7.58759251      16.82151292      -0.19040520      -0.18000835      -0.31096215      -1.15190005      -0.09027331      -2.01982260
H       -0.56318859       5.23740590      18.92806421      -0.17080507      -0.01693457       0.20876386       0.19240466      -0.36469811       0.25749695
H       -1.96521189       6.22044133      19.46286235      -0.16319077      -0.33414420       0.05077650      -0.60695553      -0.17716540       1.07899463
H       -2.07260689       5.29189952      17.98395726      -0.18650476       0.03970589       0.11557172       0.26486138       0.32382870       0.23925602
H        0.19027953       8.85506136      18.55837709      -0.05016252      -0.07827794      -0.01438008       0.11609707       1.06570506      -0.85804117
H        0.78990346       7.45805376      19.31118938       0.02763901       0.06623861      -0.00633024       0.27312282      -0.43498260       0.36690676
H       -0.73780480       8.16878483      19.83562977      -0.18430090       0.30355932       0.02414577      -0.30258614       0.04431920       0.64953256
C       -1.84990295       6.64538295      15.95234886      -0.32442162       0.16996626      -0.12128298      -0.89053297      -0.04133566       0.06140533
O       -0.74069457       8.71148291      16.39377200      -0.49539250      -0.44279466       0.88173942       0.24496308      -0.59554672       0.83231407
H       -1.53011048       5.62483671      16.09415168       0.04689251       0.12112394       0.00908203       0.15601888      -0.11629814      -0.17669633
H       -1.87563298       6.88906213      14.89496477       0.21015599      -0.12217134       0.06482027       0.32545429       0.21010712       0.11295009
H       -2.88734929       6.68928658      16.32254764      -0.04993013       0.07102648      -0.18392562       0.24544205      -0.08263993      -0.18048012
N       10.78267895       2.33145450       8.09530218       0.38471276      -0.67026671      -0.35495066      -0.38484788       1.74697423      -1.47858238
C       10.03233318       3.59681178       8.25281057      -0.96205277       0.35028298      -0.98548452       0.43418092      -0.37387198       0.69883507
C       11.62906363       2.38058254       6.94520727       0.94941109      -0.35178130      -0.35133546       2.09858465       0.99382716       0.06812285
C       10.84402724       1.27133046       8.87779039       0.12228685      -0.84055281       0.65833447       1.41231370       0.53268147       2.38892841
H        9.03894845       3.39044002       8.65460676      -0.15198839      -0.14568622       0.07259697       0.30190349       0.37623891       0.40944150
H       10.67143414       4.36784435       8.81253864      -0.24622934       0.10346966       0.08007718      -1.13631511      -1.25987160      -0.61675513
H        9.86730725       3.93208912       7.24290970      -0.12845856      -0.05505290      -0.15774729       0.00134212       0.41193464      -0.16533816
H       11.04019628       2.41827362       6.04911698       0.22477180      -0.11134828       0.01899032      -0.21539322      -0.34059316      -0.48284271
H       12.28101999       1.50552597       7.03563425       0.05190916       0.04240742      -0.06107338      -0.15982187       0.34502509      -0.63851279
H       12.29164132       3.32624048       6.92088571      -0.06325343       0.08952243       0.14526257      -1.18646574      -1.43045616       0.33774024
C        9.97828329       1.34640602      10.09361414      -0.36179075       0.98981986       0.52040497       0.66502595      -0.96505916      -0.39920840
O       11.75407983       0.44427410       8.80578140       0.24158184      -0.56059473      -0.67131408      -0.20634986      -0.97060251      -0.69179225
H       10.16800162       2.28935372      10.55924857      -0.13144007      -0.00687002      -0.15146433      -0.01957028       0.31240529       0.73902237
H       10.04578240       0.45495049      10.69814242      -0.13225740       0.04782518      -0.07418592       0.72403908       0.11345899       0.40685433
H        9.00729820       1.30613987       9.75424788       0.20538530      -0.01037613      -0.06973669      -2.52192593       0.48754460      -0.55867177
N        3.50606097       9.63920260      30.29472385       0.00858382       0.99977336       0.95115815      -2.78836966       2.35482025      -1.05332732
C        2.73676261      10.16829509      29.12976011      -0.13124781       0.23095675       0.30217067       1.80934954      -0.25906551      -0.01167846
C        2.73850396       9.66697987      31.55127688      -0.32926877      -0.64078191      -0.19010246      -0.71134579      -0.03851238      -1.63966680
C        4.51551794       8.84622641      30.10269572       0.79234841       0.08590774      -0.11541384       3.71663904      -2.24172211       1.26009631
H        2.79421603      11.24312823      28.98974913       0.04958817       0.03367425      -0.08339985      -0.05131265       0.08698938       0.65553010
H        3.19641450       9.77887024      28.22294443       0.00760718       0.08434312       0.13755311      -0.31630385      -0.18164463       0.06074350
H        1.72861603       9.82811941      29.18779600      -0.18503347       0.00161810       0.05160454      -0.77813971      -0.16573703       0.09771267
H        1.85810196       8.99896029      31.35914085      -0.04150166      -0.01408523       0.03825900       0.48323017       0.65668339       0.71601272
H        2.42488556      10.71043492      31.66823769      -0.20073753      -0.12265231       0.06791298      -0.16170053      -0.43881223       0.16691217
H        3.30970826       9.35776510      32.39653226       0.11501975      -0.14173837      -0.06883702       0.41018105      -0.32421130       0.33748937
C        5.34259044       8.76323200      28.84390797       0.13398281      -1.02102018      -1.10474941      -2.99075222       1.38539457      -0.93061411
O        4.92873167       8.11716973      31.01725162       0.53346712      -0.11499747       0.10228811      -0.31501764      -0.15063587       0.37939194
H        6.35732897       8.59037744      28.95578190      -0.10254749      -0.08042337       0.08053136       1.67776263      -0.23279575       0.80745399
H        5.16816296       9.61029881      28.18306776      -0.30697195       0.10204755      -0.27951798       0.32039845      -0.03628748      -0.12058862
H        4.92991187       7.90643634      28.35780185      -0.15909282       0.00010066      -0.18527708      -0.10124403      -0.63305092      -0.73079795
N        5.79077112       7.76607512      15.40120183      -0.21962981      -0.50879810       0.45963183       0.08354937      -1.38428807       0.93538910
C        6.65261651       6.55232445      15.49662848      -0.65856509       0.72684169      -0.24189606       1.24807882       3.49971032      -1.52461219
C        5.29659405       8.21100127      16.70299555       0.50636645       0.22379381       0.31102687      -0.76061511       0.04984167       0.18795949
C        5.47800900       8.42914003      14.25512703       0.09624340      -0.23927274      -0.26640935      -0.42056555      -0.02899303       0.67204881
H        6.63708340       6.06711596      14.53103944      -0.31001112       0.11344196       0.07511350       0.44884205      -0.13426568       0.19896287
H        7.64988848       6.89746620      15.88448053       0.07347921      -0.21060375       0.00287461      -0.42298222      -0.46760607      -0.95982730
H        6.35244335       5.90952176      16.22877775       0.08865816       0.07752394       0.10408655      -1.53484583      -1.68367004       1.78007913
H        4.97324343       7.34099855      17.34603982       0.15335531      -0.09014757       0.04051480      -0.20351267       0.83686596      -1.12025881
H        4.56825276       9.06809342      16.64343004       0.12438441       0.25659114       0.19892766       0.46370351      -1.39939559      -0.23498967
H        6.09078984       8.60397266      17.28578983      -0.10387309       0.03808190       0.18661390       1.17383707       0.52044195       0.36635289
C        6.08855452       7.99707390      12.94312201      -0.50480525      -0.61219531       0.15065840      -0.89599442       1.19236994      -0.25569978
O        4.70101698       9.38037722      14.32544028      -0.55326885       0.61925270       0.47279642       0.09208843       0.12336767      -0.47177005
H        6.09115887       6.95002568      12.74311146       0.30515353       0.01226219      -0.12812595       0.11926527      -0.68439597       0.11167555
H        7.06925839       8.42947318      12.83371030      -0.12688524      -0.05220246       0.03602353       0.52007103      -0.10535491       0.13259372
H        5.47521100       8.46877790      12.16741897      -0.13220343      -0.30627816      -0.10097843       0.16407983      -0.22236484       0.18332772
N       15.69883221       2.16253576      -5.18647723      -0.35106125      -0.49053581       0.08657482      -0.04441375      -0.23944357       1.33164644
C       15.72002148       0.93557744      -6.00754222      -0.98547732       0.52033937      -0.60008950       2.36681175       2.38002014      -0.68215221
C       14.47318704       2.35567759      -4.42961442       0.31465950       0.05212708       0.34754177      -0.92188072      -0.49958634       0.66690320
C       16.65282811       3.14210781      -5.01397998       0.39555096       0.45515257      -0.39249735      -0.66029948      -1.21942127      -0.80062890
H       15.11962657       1.17210882      -6.82787960       0.04145793       0.02318230       0.27820555      -1.74470818      -0.45486197      -1.04749632
H       16.68036883       0.87668656      -6.54409715       0.00144264      -0.13502965       0.14157312       0.01991969      -0.23974407       0.78059745
H       15.49889828       0.01292336      -5.52979533      -0.04790344       0.14081010       0.02351228      -0.37631553      -0.38986441       0.62826109
H       14.62503555       2.69812182      -3.40616038      -0.12666021      -0.06447157       0.02854876       0.56129444       0.02865739      -0.11122782
H       13.95515401       1.37980527      -4.29771416       0.07665792       0.11813398       0.26233235       0.19339485       0.88514745      -0.57949156
H       13.81090029       3.13738679      -4.82421184      -0.33217885       0.06962571       0.01377960       0.03021718      -0.47448182      -0.39873707
C       17.94742370       2.97371317      -5.71934745      -0.10328930      -0.04216213       0.31284315       1.10550511       0.12864749       0.33037508
O       16.40659151       4.13402420      -4.36585370      -1.45544053       0.41570973      -0.33268472      -0.08340286       0.62503266       0.71634901
H       17.79564299       2.59011825      -6.71346524      -0.05700660       0.01994889       0.09498031       0.15427688      -0.29700452      -0.18950927
H       18.59737192       2.27649303      -5.12102481       0.32188739      -0.22374033       0.20632195      -0.46499169       0.76082003      -0.72348773
H       18.39196732       3.98273536      -5.82710570      -0.14685247       0.17012600       0.13446428      -0.07960118      -0.81991875       0.28552240
N       30.41748994      15.80095900      -3.58860088       0.05889088      -0.30800691      -1.16594639       0.81305021       1.16675055      -1.49536741
C       30.62715130      14.64907707      -4.43992250      -0.30742312      -0.27771107       0.33074369       1.56330550      -0.55892742       0.76660347
C       30.49074790      17.19437736      -4.16116657      -0.14082704      -0.43859228      -0.46260937      -0.83550453      -2.03783798       1.22465682
C       29.96108753      15.65274800      -2.37086262       0.40105015      -0.53296326       0.25347251      -0.65942323       0.36161071       2.82585907
H       29.75004573      14.37890070      -4.98574451       0.23662371      -0.07119271       0.00024967      -0.55763459      -0.06953613      -0.61793488
H       31.49564841      14.82602121      -5.08591747      -0.17281703      -0.10027478       0.03479755      -0.40808338       0.02636681      -0.07725345
H       30.91019047      13.78128637      -3.80028699      -0.26164342      -0.14770698      -0.00320655      -0.23476617       0.67619097      -0.57696134
H       31.24312465      17.25894605      -4.86384097      -0.04514552       0.06063141      -0.32921003       1.65744972      -0.19492376      -1.34822595
H       30.62563999      17.95891361      -3.45336213       0.09714444       0.10499364       0.08026016       0.27637023       0.42840457       1.23958480
H       29.57777118      17.40806816      -4.62493762      -0.14165718      -0.02902738      -0.27940329      -1.39784515       0.33440417      -0.78705215
C       29.81761441      14.28060891      -1.73478481       0.09415858      -0.10950044       0.83152108       0.95279664      -1.11987233      -0.22894764
O       29.57176347      16.61217614      -1.68797885       1.32265022      -0.49713781       0.61149231       0.08811393       0.07124007      -0.17437939
H       29.48463774      14.40283277      -0.68384313       0.25893306      -0.19208807       0.21120733      -0.26556066      -0.09668642      -1.04802787
H       30.72496670      13.60651323      -1.67058036       0.03979197       0.08803638       0.11991017      -0.76967418       1.07905936      -0.29183510
H       29.14710554      13.74747989      -2.42534089      -0.29291291      -0.03355405      -0.07066912      -0.28943419      -0.18124324       0.86428392
N       -6.07107485       6.95258984      18.22296049       0.46574090       0.86360330      -0.56011578      -0.27366009       1.02474868      -1.16965640
C       -6.79415805       7.86347689      17.29679496       0.35593464      -0.31620931      -0.27160276       1.06822991      -1.11822867      -0.12706986
C       -6.77892180       5.81167230      18.67436340       0.72567842       0.51254664      -0.35051893      -0.95000029      -1.32057071       0.55507725
C       -4.83340487       7.18450251      18.69905451       0.29710731       0.42390376       0.30038034      -0.17883986       0.66057485      -0.82707751
H       -6.51870591       8.88124368      17.43600569      -0.10640710      -0.07336647       0.08240568       0.38373649       0.59225082       0.15988420
H       -6.54248132       7.52475021      16.29743867       0.19577718       0.16669927      -0.22617401      -0.16420770       0.28790087      -0.31278506
H       -7.86559425       7.83004905      17.38387002      -0.08239230       0.00591231      -0.17823327      -0.34689331      -0.42791995       0.50942177
H       -7.30486338       5.15718533      17.92229566       0.07239895      -0.07148960       0.10139087       0.86134779       1.01512408       0.30628446
H       -7.54204655       6.23502063      19.31662104      -0.03196729       0.37925935       0.19167170      -0.49669346      -0.51246864       0.44190818
H       -6.09508782       5.17458424      19.25261960       0.04801996      -0.24705115      -0.10440895      -0.44915077       0.31427240      -0.24876550
C       -4.14008564       8.44259862      18.24559235      -0.04221968      -0.17912658       0.39702657       1.33121943      -0.77065873       2.04060125
O       -4.27107232       6.41393449      19.45784552      -0.02822688       0.19824838      -0.08613688       0.25228634      -0.40987611       0.84185714
H       -3.07413167       8.30941690      18.39716892      -0.21744438       0.15169491       0.02786140       0.08116442      -0.35344926      -0.02863378
H       -4.35160739       9.26677192      18.88764632      -0.01379073       0.09184803       0.06815338      -0.79166311       0.53797114       0.35979325
H       -4.25897513       8.72008016      17.26625536       0.12381611       0.05658634       0.03339627      -0.65998811       0.58546263      -2.27055979
N       -1.03434888       7.27514219       9.26010891       0.68560981      -0.44884858      -0.91989883      -0.86837208       1.05793262       1.42373419
C       -0.70024104       6.86688864       7.92701987       0.10450546      -0.53597713       0.48559901      -0.83709633      -1.16744041       0.08970669
C       -2.20435857       8.19859580       9.40374901      -0.84491819       0.18281561      -0.05360766       1.62021983      -0.90384841       1.84363353
C       -0.51662016       6.79225748      10.42819959      -0.84736066       0.16675200       0.07241517      -1.73493648      -0.77670205      -0.07722405
H        0.32365943       6.55567126       7.84083756       0.16349169      -0.00151491       0.25961619       0.47891784       0.34179181      -0.19133762
H       -1.28335261       5.91986245       7.73966627       0.21950172      -0.07626579      -0.05999487       0.25845170       1.19883275      -0.57566720
H       -0.93538188       7.71864702       7.27808427       0.12411589       0.08485971       0.19746658       0.12112742      -0.72829461      -0.23201744
H       -3.07627240       7.75986214       9.85331271      -0.15148957       0.03601542      -0.32525585      -0.25847375      -0.73207790      -0.29299536
H       -2.43232353       8.64532492       8.49012849       0.07526771      -0.28207420      -0.52470576      -0.24247214       0.64726675      -1.35074449
H       -1.87372307       8.90929514      10.14902441      -0.06847735       0.05006924       0.24381628      -0.13688861       0.60981888      -0.15658286
C        0.75931242       6.01851614      10.34636359       0.37967306      -0.23213811       0.48121481       1.06979001       2.30715513      -0.14756155
O       -1.12655835       6.92716866      11.50735691       0.34492298       0.67569440       1.47608551       0.90860105       0.23717439      -1.07043672
H        0.73360171       5.06856585      10.78672321      -0.02780112      -0.20917668      -0.05221967      -0.18769707      -0.98240125       0.97418720
H        1.47314491       6.70766175      10.84209872      -0.01255318      -0.11005406      -0.02613442      -0.13884531      -0.78570366       0.15806687
H        1.19135964       5.92737361       9.37414401       0.10288265       0.22772753       0.12062082      -0.18744116      -0.18191223      -0.63840783
N       17.50685307       9.20517908       1.86389217      -0.42359591       0.40650534      -0.76969297      -0.22828463       1.22556436      -1.06511319
C       18.46533104       8.61592070       0.92665096      -1.04428228      -0.96225796       0.06796933      -0.63004661       0.43594560      -0.12927853
C       17.39356379      10.67456039       1.98339254       0.69984684      -0.94896649      -0.37052888       0.02745087      -0.22000134      -0.05847234
C       16.60058795       8.53180718       2.53678613      -0.11570027      -0.30742551      -0.80182162      -0.68850923      -2.58976650       1.06266439
H       19.10706771       7.97552030       1.49716252       0.23960902       0.09744698       0.07217773       0.50373781      -0.47661543      -0.07419046
H       18.00076148       8.07756023       0.08101077       0.10705511       0.08678747      -0.09880390       0.08280508       0.17217538       0.50374460
H       19.02700702       9.45408990       0.53294966      -0.03566253      -0.16758213       0.16015727       0.31910199      -0.14422044      -0.07867226
H       17.81167611      10.99741167       2.94425703      -0.24118351       0.14663304      -0.05853902       0.08597454       0.05387351      -0.57772076
H       16.37251001      11.06880273       1.93036184      -0.06947509       0.00301551      -0.13435729       0.00449576      -0.65448886       0.21375878
H       17.85625052      11.08745771       1.10647350      -0.10198347      -0.00394780       0.02237220       0.72099471       0.32689506       0.32934710
C       16.49907141       6.97611623       2.30644510      -0.07084141       0.02148588       0.14442834       2.07584667       1.00490630       1.97999763
O       15.89246337       9.08945018       3.37312378       0.74355504       0.76757438       0.23467295      -0.44341502      -0.17141530       0.05690208
H       16.53113658       6.70221387       1.30585728       0.11082357      -0.21000981       0.24025365       0.14137951      -0.35018623      -1.89966905
H       15.67262018       6.50923731       2.76282724       0.02629284      -0.03785908      -0.00819220      -1.38325024       0.18715592       0.43425566
H       17.33908637       6.44469169       2.82803007       0.32247974      -0.17662548      -0.19725223      -0.22438455       0.83723664      -0.62725556
N       28.88165210      -4.33568535       3.28453458      -0.70617678      -0.29207736      -0.36467899      -0.79223466      -0.53795278      -1.44443703
C       29.31722621      -4.24823488       1.89489823      -0.13199491       0.10150358       0.05574082      -0.97891730       1.76199555      -0.04172719
C       27.43697261      -4.32554083       3.42584975      -0.54512560       0.17400187       0.17075868       0.40548196       2.94321060      -0.17786929
C       29.59802579      -4.31136905       4.40470555       0.23306302       0.29291705       0.44427133       0.66040146      -0.51316458      -1.94335771
H       30.37899399      -4.12635764       1.75090535      -0.07061144      -0.11208508      -0.02027835       0.04777468       0.06462482       0.14106931
H       29.00436487      -5.13473822       1.35665747       0.31716588      -0.01106751      -0.23683108      -0.19437766       0.04488371      -0.21347924
H       28.78172846      -3.30647384       1.52683345       0.09213879       0.09060508      -0.14040129       0.91051269      -1.45715714      -0.25401637
H       26.93788014      -4.31423703       2.43267140      -0.00355406       0.00518477       0.11076221       0.32110164       0.00518903       0.95540500
H       27.25067395      -3.39726448       4.04237021      -0.21993877      -0.09361488       0.13069920      -0.47460264      -0.71766329      -1.04566193
H       27.11216432      -5.06529313       4.07029296      -0.15445731       0.07141924      -0.10034943      -0.74762875      -1.94454980       0.87135118
C       31.05113601      -4.33260732       4.19650187      -0.24143472      -0.16974886      -0.72370506       1.76988482      -0.46377227       1.02135444
O       29.06224886      -4.42832888       5.47676374      -0.62994296      -0.44742022       0.78717583      -0.58042789       0.68631721       2.02681422
H       31.54816597      -3.69610531       4.91164377      -0.13034393      -0.00659518       0.00816583      -0.04474218       0.29024708       0.31134197
H       31.43433863      -4.05338478       3.22814410      -0.06350908       0.08844664      -0.17503273      -0.07739897      -0.13717258      -0.08514956
H       31.39546420      -5.34207534       4.48401665       0.10412298      -0.08197862      -0.11911700      -0.09252436       0.27748066      -0.44622177
N        5.99673583      11.92939772      -9.15680371       0.38956412       0.72080228      -0.12056011      -0.11454801       0.54067641       0.15622106
C        4.74995682      12.58389997      -9.59215758      -0.05710656       0.81632222      -0.01988219       0.60256690      -1.55248594       1.26234734
C        6.84576070      11.28871241     -10.19176828      -0.39413580      -0.75500661       0.80078679       0.27605537       1.12525976       1.88003016
C        6.34323842      11.96239370      -7.82099941      -0.69841538       0.44725817       0.20454970       0.51698601      -0.51143986      -0.99896693
H        3.91996904      11.86654552      -9.56026502       0.13200499       0.06063021       0.32427746       0.02242898       0.24117404       0.25392270
H        4.58704974      13.40624441      -8.90769446      -0.12745398      -0.11009191      -0.07264693      -0.42582762       0.29364389      -0.71219921
H        4.87835948      12.83919433     -10.59729397       0.13599598      -0.04831943       0.05961844       0.09624474       0.96921456      -1.30471098
H        7.63142052      10.80097167      -9.62307163       0.15962228      -0.26933922      -0.10887426       0.24477571       0.15478507      -0.20240413
H        7.26282941      12.02965024     -10.91085772       0.06869992       0.11122737      -0.05017773      -0.39896643      -0.51174426       0.44645423
H        6.30210709      10.50777252     -10.64483718      -0.11465532      -0.05684178       0.07539653      -0.71700656      -0.71549594      -0.95964104
C        5.37950499      12.69553832      -6.90375666      -0.58109466       0.15448813      -0.03087050       0.14540002      -1.23311496       0.37271392
O        7.36391955      11.41379809      -7.42066725      -0.79097610      -0.66608508      -0.62774789      -0.05929846       0.24809697       0.19737849
H        5.48225717      13.77066371      -6.97933922      -0.20819694       0.11356843      -0.06450058      -0.27746534       0.17023513      -0.05808418
H        5.55371984      12.37776300      -5.86959023       0.03561782      -0.04177304      -0.04042122       0.26699781       0.14302872      -0.37352273
H        4.40149756      12.30061246      -7.16570657      -0.09120811      -0.31141746      -0.42942458      -0.23299074       0.53656584       0.16921704
N        3.14342148      13.88468775       2.34122573      -0.15804580      -0.36331390      -0.47190164      -0.19039005       1.89040208      -0.13573657
C        3.51635275      13.18406715       3.53284960       0.42791062       0.50623538       0.09618715      -0.12043145      -2.23693967       0.45607620
C        1.91727171      14.63800870       2.59225022       0.20581638       0.49742003      -0.16702101      -1.49320602      -1.93278086      -1.46155405
C        3.86596134      14.20392804       1.22310651      -0.28309713      -0.55826181      -0.55712049       1.73956203      -0.85746562       0.79350513
H        2.71760485      12.33533337       3.65392924       0.34728882       0.04005970      -0.12557942       1.44454205       1.57921505       0.23661441
H        4.44805122      12.64963468       3.38026441       0.08873072      -0.28182301       0.13336759       0.01659160       0.05555247       0.16117392
H        3.59217630      13.80204783       4.47719266      -0.08626004       0.22227174       0.30029969      -0.26911929      -0.56414515      -1.18345070
H        1.05857003      13.98001767       2.15081118       0.14274045       0.13225692      -0.16747248       1.01746321       1.65673971       0.84528685
H        1.96283455      15.62684601       2.16533871       0.27894975      -0.07219749       0.25297725      -0.24106805       0.07265564      -0.34878612