768
Lattice="19.897926479887282 0.0 0.0 0.0 19.897926479887282 0.0 0.0 0.0 19.897926479887282" Properties=species:S:1:pos:R:3:momenta:R:3:forces:R:3 mol_liquid.pdb=T energy=-433114.4375 free_energy=-433114.4375 stress="0.000958324468228966 0.0011102213757112622 0.0003956420405302197 0.0011102213757112622 0.00018419754633214325 0.00013370529632084072 0.0003956420405302197 0.00013370529632084072 0.004936948884278536" pbc="T T T"
N       12.46407231       7.51459885       1.71645655      -0.21042269       0.16358557       0.41533413      -0.94938195       1.48055625       0.33413801
C       12.11839269       7.06412913       0.39426937       0.40952586       0.43313629       1.39737981       1.99082184      -1.63446748      -1.05794585
C       11.69282825       8.42566573       2.38190372       0.09180630       0.04090517       0.48147748      -1.16555142      -0.17997918      -0.55182922
H       13.43016764       7.44855920       2.02960742       0.20392300       0.20841472      -0.03034631      -0.30970684      -0.52828318       0.06412273
H       12.49395756       7.73946976      -0.39992264      -0.21269553      -0.19010088       0.04416858      -0.24945861      -0.24120268       0.35127813
H       11.04966868       6.92294129       0.24997013       0.15614940      -0.06716775       0.04959579       0.09198114      -0.00455123       0.32205328
H       12.69198214       6.04983945       0.27028655      -0.01232141      -0.21264732       0.22299973      -1.29555869       1.75964284      -0.02666228
C       12.09280816       8.64683812       3.81054611      -0.69992298       0.20576882       0.22421649       0.31346190       1.40556228      -0.85003525
O       10.63878338       8.96785256       1.93865603       0.11967331      -0.32835634       1.12680936       2.10098052      -1.46376061       0.43031776
H       12.39878312       9.69712275       3.89966639      -0.12816822       0.07554792      -0.19480287       0.10726818      -0.30863050       0.18713270
H       12.83275404       7.97920771       4.20904118       0.20705795      -0.17194069       0.07076972       0.27337199      -0.26877427      -0.03972186
H       11.17264384       8.59632310       4.32672266       0.04086467      -0.25364085       0.23727238      -0.82672715      -0.15281734       0.90196824
N       15.76873840      11.81539467      19.40553032       0.07955981      -0.75255124      -0.62503030      -1.44067430       1.46143317      -0.73218542
C       16.87657882      12.43006890      18.68874264      -0.01219444       0.43137909       0.59303438       0.66122949      -1.65605378       0.05806362
C       15.98052228      11.35617762      20.63490503       0.01886569      -0.41578391      -0.66567270       0.03784503      -0.47125083       0.56080937
H       14.80807784      11.88723510      19.05415398      -0.01417549      -0.17396052       0.28936826       0.85199344      -0.03848014       0.26377827
H       17.56108107      11.56676124      18.63356304      -0.09129507      -0.10003807       0.03341664       0.35410130       0.75557721      -0.49933222
H       17.41467573      13.21753313      19.23701187      -0.15192688      -0.11826280      -0.03117234      -0.65747756      -0.11044865      -0.15837112
H       16.58176796      12.71757094      17.68421987       0.15361294       0.07262538       0.08195454      -0.09536096       0.15978771       0.16509244
C       14.73760882      10.96273860      21.43727200      -0.00012346      -0.16090196       0.08077457       0.76272655      -1.11954701      -1.86534190
O       17.13272399      11.26736121      21.06186967      -1.04128135      -0.30924144      -0.40707933      -0.26267037       0.09598193       0.21398918
H       14.07760506      10.33578556      20.75954031       0.03188789      -0.41060882      -0.32913140       0.54992872       0.79083121       1.02750850
H       14.26700858      11.87566200      21.71985164      -0.16443458      -0.24424944      -0.27829244      -0.64273465       0.48179781       0.40510285
H       15.11875059      10.40359384      22.27380424       0.00928052       0.32627089      -0.18769187      -0.32769090      -0.17284629       0.39355546
N       13.56558434      13.71114221      -5.73053606       0.07931187      -0.70983414      -0.39827109       0.19122928      -0.81086260      -1.62207818
C       14.52082022      12.62181204      -5.78879465       0.31474327      -0.03709446      -0.47355668      -0.03649732      -0.29544151       1.09569943
C       13.49120039      14.51717395      -4.68530692      -0.59635803       1.18680319      -0.07917503       0.61784619       0.44413278       1.39402032
H       13.09498862      13.93863027      -6.63555383      -0.05767464       0.02564548       0.08874493       0.12899150      -0.14102145       0.99728447
H       15.04867132      12.72663301      -4.83799100      -0.13894236      -0.09831259      -0.23253212       0.06654331      -0.62479734      -0.11294570
H       15.25375929      12.73750851      -6.56763523       0.00929034       0.14773641      -0.14374980      -0.00110021       0.12832727      -0.50368214
H       14.04274826      11.61721837      -5.87127077       0.32941485       0.14783251      -0.21594226       0.30974716       0.88620561       0.05510606
C       12.39995058      15.53074662      -4.83522472      -0.63939096      -0.22540330      -0.54347454      -1.32983112       0.05992524      -0.24517839
O       14.20459263      14.42386597      -3.64956611      -1.16052362      -0.45626445       0.06463430      -1.00785017       0.01258811      -1.26314294
H       11.57976150      15.06680797      -5.42535073      -0.29054442      -0.29235486       0.19139111       0.65889686       0.42423880       0.42671841
H       12.64451328      16.46169500      -5.33313787       0.09406404       0.17911339      -0.11883720       0.58866280      -0.04297181      -0.25943172
H       12.00091159      15.84138506      -3.87859355      -0.00573281      -0.33042447       0.00818353       0.03600264      -0.34070432       0.20482138
N        9.51097675       8.49826588       8.05542425      -0.91775450      -1.24876357      -0.19530414      -0.48662335      -0.54586232      -0.34140581
C       10.79867877       8.35146682       7.41919015       0.10506785       0.98421213      -0.63395170      -0.66914219       1.82498765      -1.01307249
C        9.31290472       9.21100719       9.17125313       1.07176860      -0.11756004      -0.07285816       1.91557777       0.76004624       0.38949436
H        8.74445852       8.13420423       7.49997857       0.00351600       0.06798186      -0.20481204      -0.16093114       0.08565311       0.67555279
H       11.09969359       9.40306904       7.18343529       0.02468806      -0.04468977       0.09252979       0.40890795      -1.00782311      -0.14893112
H       10.69626618       7.77171055       6.47680247       0.16472471       0.18133071       0.04746135       0.04997660       0.36149502       0.82739204
H       11.49921795       7.92499021       8.07876800      -0.17950296      -0.09421094      -0.10747618       0.99894333      -0.53790194       0.61610663
C        7.94169091       9.61335345       9.48187370       0.02609119      -0.09261759       1.23763004      -1.05424464      -0.30604953      -0.76179093
O       10.25031323       9.67334934       9.85396709       1.44988338       0.41894616       0.57444404      -0.13752800      -0.51346546      -0.61077392
H        7.67660431       9.57058505      10.51347424      -0.04022026      -0.07167707      -0.25995746       0.23751734       0.10167304       0.70843899
H        7.26650581       8.97970392       8.93363523       0.06219941       0.25309876       0.15778041      -0.54474843      -0.04397453      -0.21424378
H        7.84040630      10.61876694       9.08429010      -0.09759936       0.14858983      -0.05477961      -0.25696921       0.11667906       0.16895881
N       -0.25225502       5.63731728      19.95182009       0.86900224      -0.48866260       0.44128581       2.43617821       0.78995788       0.06314547
C        0.96965674       4.90604652      19.57469423      -0.16894539       0.83152735       0.45944727      -0.92808676       0.58789897      -0.71404570
C       -0.20552746       6.86577883      20.48677230       0.32337958       0.06866919      -0.85860109       0.70899415       1.74243343      -0.20993847
H       -1.11437336       5.19797791      19.80292700      -0.17305926      -0.02368783      -0.12478220      -1.47573292      -0.65907079      -0.22590874
H        1.15966503       4.17721707      20.30631376       0.26116460       0.06942207       0.10476982       0.61763060      -0.72331572       1.20043099
H        1.79554468       5.61845806      19.47301454       0.20246622      -0.16384703       0.10657981      -0.31402236      -0.39016500      -0.11538602
H        0.78516944       4.31357575      18.66941843       0.50994125      -0.12397256      -0.04411407       0.13052931       0.65815669      -0.07828790
C       -1.55792637       7.42254562      20.85779178       0.44899524      -0.65891993       0.72970788      -0.92689383      -4.06807756       2.05062938
O        0.83828169       7.54550582      20.67697570      -0.78553245      -1.27350236      -0.12047956      -1.00189674      -1.33039474      -0.24075972
H       -1.67029632       7.02098359      21.97196494       0.07660793       0.09020215       0.05524527      -0.10349293       0.87189972      -2.10930252
H       -2.34228279       6.86648921      20.26824335      -0.14309007       0.09267331       0.00894829       0.58470750       0.92186522       0.69121349
H       -1.71941080       8.44995903      20.91624808       0.19051128      -0.08138747       0.07916098       0.18534800       1.61325169      -0.33586466
N       15.32756754      10.03310968       7.47277109      -0.03072953      -0.12932630      -0.80083368      -0.52858531       0.64708251       0.41707745
C       13.94017367      10.22898352       7.10940941      -0.08226632       0.89738404       0.13312670       0.20715728      -1.53284001      -0.39890283
C       15.65189670       9.22186430       8.46914170      -0.48992846       0.31878178      -0.13083553       1.52648103       0.16535181      -1.03779590
H       16.04076512      10.54317283       6.97665635       0.10390564       0.32740509      -0.16890836       0.11848733      -0.04970160      -0.15647450
H       13.88714153      11.16172463       6.58260492       0.08513611       0.22208293       0.20620940      -0.45909309       0.30257437      -0.13463128
H       13.34145937      10.19901063       8.03245604      -0.08840500      -0.03039057       0.23849999       0.04517159       0.11017080      -0.63751912
H       13.66133112       9.37449352       6.41702092      -0.16619183      -0.35146635       0.15385966      -0.20509622       1.11453748       0.81353438
C       17.13751095       9.03535309       8.65280380      -2.01595442      -0.49844728       0.71103995      -0.12404183       0.17724189      -0.87793851
O       14.87539243       8.48849198       9.04108159       1.62559289      -1.31499579      -0.01642481      -1.37555206      -0.81371170       0.90099996
H       17.71164063       9.90836727       8.25156616       0.00477021      -0.03125282      -0.05352540      -0.29148629      -1.01543546       0.46048987
H       17.26728331       8.12101000       8.02972127      -0.06727304      -0.05789826       0.14287014       0.70956326       0.60372806       0.50661600
H       17.32407811       8.80824754       9.69210348       0.07322022       0.01141304       0.02503753       0.31412095       0.03279386       0.07056318
N       22.05923401      11.53098344      10.91021844       0.61600497      -0.24231828       0.58665399       0.03547846       0.27034885       0.82598090
C       23.35825564      11.75398718      11.53400725      -0.16370022      -0.87521793      -0.29239354      -0.71859753       0.96133238      -1.72391200
C       21.71146863      10.32812929      10.48876587       1.72988072       0.65332749       0.62716875       0.74631381       0.58424127      -0.88755614
H       21.28981480      12.10817948      11.18954433       0.13404596      -0.05039531       0.14815490      -0.21718571       0.51956177      -0.01312899
H       23.22421129      11.64160987      12.56832414      -0.22143744      -0.00659699       0.17422854       0.58433032      -0.27995205       1.37214065
H       23.74555464      12.74931125      11.28795752      -0.18971404       0.14681353      -0.00418777      -0.27846527      -0.26269162       0.22030520
H       23.97937359      11.04302414      11.04490323      -0.07346847       0.16202220      -0.13619371       0.91693532      -0.54321611       0.26078624
C       20.29996729      10.14080790      10.16539898       0.00649346      -1.29227619      -0.51535091      -1.89535177      -0.62792271      -1.44497633
O       22.54826710       9.48284089      10.15811961       0.01199993       0.81083550       0.07463999       0.43335783      -0.74615836       0.18429992
H       19.61677411      10.86844985      10.57897355       0.20440318       0.33938614       0.01781550       0.20794414       0.44160682      -0.03392312
H       19.89310989       9.17773483      10.50042805       0.34437252       0.17380851      -0.07109163       0.52403647       0.01296032      -0.33977103
H       20.25116193      10.18094366       9.02750071      -0.00055719      -0.04008025      -0.27370668      -0.27142003      -0.12322193       1.54272819
N       14.65761331      19.89777808       9.88384855       0.45691188       0.72056472       0.05683292       0.36576128       0.55797088      -0.50153792
C       14.78518353      21.23714255      10.39337440       0.44738318       0.00703042       0.38626890       1.36960030      -0.61908084      -0.42502394
C       13.92828193      19.00748456      10.48673730      -0.03718460       0.28750974      -0.40063518      -0.63248104      -0.87762082      -0.38827899
H       15.10419249      19.61416904       9.03789979      -0.21465390       0.33820445       0.03147789       0.64595222       0.36743712      -0.43695581
H       13.88677269      21.71406168      10.67055497      -0.16125629       0.07899157      -0.22812770      -1.00179362       0.13444598       0.36407584
H       15.24137033      21.77284021       9.60741579       0.15804263       0.08693335       0.07552698       0.39627451       0.88819730      -0.75009716
H       15.51173369      21.25902735      11.19101231       0.17544706      -0.06916723       0.11463439       0.00282802       0.04461968       0.48569179
C       13.80761372      17.68960561       9.78373442      -0.45631759      -0.35975451      -0.43565623       1.18381274      -1.19058967      -0.49894536
O       13.30111219      19.29407076      11.50029784      -0.12637421      -0.73704239       0.18966764      -0.63407195      -0.20015985       1.40180004
H       13.58476140      17.82391986       8.70497395       0.07761598      -0.10478008       0.14960985      -0.28905314      -0.12151831       0.89224505
H       13.14759000      17.06091677      10.34499899      -0.25374018      -0.07029192      -0.13854349      -0.96421593      -0.13492654      -0.16677687
H       14.72445228      17.05216025       9.78398146      -0.13489161      -0.07717092      -0.24646896      -0.14872593       1.05580473       0.14432731
N        8.42034664      12.39983878       5.66807619       1.15432507      -0.49802659       0.20805691       1.31548548       2.57184696       0.12224983
C        7.90155650      12.57651279       4.33877152      -0.17341181      -0.51600597       0.17913180       1.97799766      -0.57078576      -0.99230474
C        9.32721903      13.26039025       6.22279198       1.15598443       0.91310386       0.22518818      -0.99814820      -0.68761158      -1.94252956
H        8.10801058      11.67254125       6.25780722      -0.14875178       0.15625322      -0.11238593      -0.76100248      -1.01526332       0.38782406
H        8.30964130      11.74519998       3.72677140       0.15192077       0.16203329       0.18568659      -0.18841794       0.68813509      -0.05802934
H        8.22027937      13.54259585       3.87978473       0.15799807       0.08647890      -0.09460100      -0.29740512      -0.84985948       0.69404715
H        6.86693768      12.43859246       4.31911688       0.22278488      -0.01882611      -0.32642060      -1.72480726       0.13630709       0.02685249
C        9.78241539      12.83195266       7.55414126       0.58225638      -0.41431577       0.22503907       0.37358859       1.16777658       1.07997644
O        9.74115395      14.27173256       5.62019049       0.28326709      -0.45064628      -0.69423344      -0.39797550      -0.94326496       0.80084324
H       10.50539984      13.58196542       7.84262279       0.01744758       0.16126384      -0.04296627       0.64616472      -0.44561970       0.08232938
H       10.10155039      11.81033029       7.60631180      -0.15283041      -0.21571351      -0.22262760       0.64164895      -0.31683314      -0.27274880
H        9.05437385      12.91659547       8.33858400      -0.19354984      -0.06148418       0.11773509      -0.99672925       0.13848971       0.04949276
N       -0.25954518      23.74648811      15.65260527      -0.08864031      -0.24952992      -0.21535442       0.48099199       0.24436100       0.42139599
C       -1.55433596      23.39989994      16.27902287       0.27423658       0.29727188       0.34784236       1.10808992       0.46374157      -1.17274392
C        0.54013615      22.90263105      15.00612161       0.14798896       1.05462494      -0.10200561       0.51028097      -0.98779017      -1.17702031
H        0.14984431      24.61077765      15.98402434      -0.06430058       0.08148392       0.12680844       0.27213612       0.06910203      -0.05437314
H       -1.78718231      24.33831209      16.83033073       0.26000348       0.00086782       0.02912018      -0.74948335      -1.20929372      -0.41675621
H       -1.38694807      22.55121750      16.90035169      -0.13568205      -0.05452770      -0.16322798      -0.04316846      -0.33086941       1.00443637
H       -2.21541605      22.98743704      15.50164558      -0.05812595      -0.03259277       0.15826640      -0.30824104       0.89819735       0.40426064
C        1.93767989      23.43509926      14.55262725       0.44262608      -0.91515667       1.19918104      -0.21678558      -1.25825262       0.33233339
O        0.15576808      21.76346609      14.64426472      -1.00785641      -0.03188033      -0.01641014       0.40498248       0.98713541       0.39527464
H        1.87229700      23.82620536      13.55528646       0.00602557      -0.00157955       0.11607863      -0.18355387       0.06350494      -0.56922007
H        2.80460290      22.73919674      14.57833201       0.17596460       0.24575529      -0.32605890      -1.34765816      -0.17253804      -0.05934808
H        2.28711079      24.21565657      15.15589818       0.05331361       0.17699096      -0.04543309       0.08978610       1.42663932       0.97892964
N       11.34882112      -1.28802553      -1.49183101      -0.26234942      -0.38922423       0.62740776      -0.84226346      -1.04352903      -2.11336446
C       12.00265201      -1.24008233      -2.82942672       0.54388115      -0.00052056       0.42564835      -2.42501068      -0.09441598       1.31418908
C       10.29252405      -2.12416295      -1.27619122       0.14084944       0.57371363      -0.27613847       0.70959103       1.65652347       2.50597119
H       11.84811030      -0.80931123      -0.76727936      -0.20366774      -0.02847781       0.01021964      -0.29677919      -0.23785684       0.71972358
H       12.02557042      -2.22763643      -3.23194644      -0.05432194       0.06500624       0.08905089       0.46723986      -0.49450094      -0.18255702
H       12.91773443      -0.82193946      -2.58235350       0.19759545      -0.08084559       0.18778551       2.00300622       0.62331223      -0.45047039
H       11.42121277      -0.63551778      -3.51172304      -0.23067027      -0.31102126      -0.26942767       0.05407395       0.36385188      -0.16509306
C        9.96514953      -2.32666786       0.20044283       0.20074479       0.47391520      -0.68711414      -0.97204220       0.08374324      -0.22944027
O        9.64839585      -2.76270452      -2.08475234      -0.79164624       0.10099238       1.27411418       0.35044399       0.10379139      -1.38387716
H        9.81780316      -1.45314233       0.88646160      -0.15309105       0.17359121       0.05060972       0.45563078      -0.65766340      -0.97542572
H       10.79277769      -2.94296734       0.50519727       0.11916925      -0.19115837      -0.16347593       0.15578464      -0.26027447       0.68918395
H        9.05202725      -2.93648251       0.17571833      -0.23734158      -0.13056731       0.05323267       0.31501698       0.21899197       0.38451225
N       17.47830333       3.73723720       7.87502998      -0.18249611       0.28521137      -0.20917207      -0.76690614      -0.02741836      -0.26214778
C       16.09923835       3.69295817       7.41237434       0.33392295       1.22661147       0.31810082       1.68113613      -1.44053340      -0.10475609
C       18.36078808       4.59342468       7.38326283      -0.42705945      -0.21602021      -0.94370235       0.88036674      -0.08841322       1.53309369
H       17.76739474       3.10482568       8.60097321       0.17844614      -0.07523418      -0.16079419       0.06967412      -0.36011389       0.20986995
H       16.12837660       3.74253621       6.34111280      -0.32088915       0.17633934       0.11349361      -0.23429476      -0.45119759      -0.59278989
H       15.56120293       4.53377480       7.69529637      -0.32636992       0.03876197       0.11579983      -1.15389395       1.42878723       0.99287236
H       15.72466893       2.74206512       7.79397760      -0.19269394      -0.12130221       0.04452283      -0.42979956       0.35377654      -0.39932728
C       19.74077971       4.30992365       7.97704325      -0.47675453      -0.64469371      -0.94410560       0.45217037      -2.29802704      -0.34826291
O       18.06355119       5.52327114       6.65045183      -0.47400885      -0.45235347      -0.94920091       0.35956645       0.38119268      -0.71648812
H       20.01178194       3.22123414       7.73907124       0.12829094      -0.08706118      -0.17803801      -0.30680537       1.58708167      -0.09827597
H       19.70796868       4.23396416       9.04624367      -0.20049228       0.06795789       0.02294111      -0.46959844       0.27649054       0.66959155
H       20.58324300       4.93030886       7.76131391       0.03157333       0.21486952       0.04336997       0.06721697       0.56124723      -0.71760494
N        3.43112683       7.13891235     -11.33510195      -0.17222049       0.67959200      -0.27679392       0.36600369      -0.32626355       0.66654718
C        4.56212569       6.30748696     -11.23326956       0.35616156      -0.47868001       0.92130186       1.39422476       0.18897645       1.49457526
C        2.75519200       7.27205959     -12.44912544       0.14997315      -0.06438316       0.22638378      -2.59940290      -0.36657691      -0.98749870
H        3.31583247       7.71710711     -10.54404349       0.01229816      -0.12107479       0.25519615      -0.92742908       0.98891985       0.30872166
H        4.48447505       5.32065920     -11.55911081      -0.08820606      -0.00948888       0.28039007      -0.80862939      -1.59182310      -0.69127077
H        4.92565484       6.26335300     -10.20199945       0.03727596       0.17632992       0.03746752      -0.38836730       0.07135487      -0.06514021
H        5.36046112       6.71628383     -11.76656334       0.03470385      -0.00074380       0.20844607       1.48572218       0.63348013      -1.03833902
C        1.43759576       8.08124018     -12.35846574       0.76639647       0.32677754      -0.34144185      -0.30928731      -0.46711144      -0.37933621
O        2.99893861       6.59671038     -13.45973330      -0.83435264      -0.26529092      -0.21859783       0.27689889       0.38774693       0.28447539
H        0.71119543       7.45903805     -11.71076624       0.00233602       0.09582318      -0.29310137       1.13913810       1.26532364      -0.89213812
H        0.98916909       8.16789244     -13.39066149      -0.06057988      -0.14328477       0.27080656       0.58836597      -0.06701128       1.23671651
H        1.63474815       9.08527295     -11.93658783       0.11861916      -0.11032423      -0.15530946      -0.30764911      -0.86269230      -0.16644993
N        6.66134852       9.37811971       4.83193962      -0.32136348       0.34257981       0.89057807      -0.35310972      -0.72686511       0.02582722
C        8.12307851       9.17196786       4.66069548      -0.29797130      -0.02250369      -0.64781554      -0.50027835      -0.19566986      -1.47900820
C        6.04784397       9.87311910       5.94041608      -0.36721478      -0.08511382      -0.30111052       1.74979901       0.84265083       1.06019318
H        6.06711059       8.80782733       4.21323930       0.00541839       0.06534964      -0.20886935       0.59619206       0.50065613       0.36918879
H        8.26724186       8.81748152       3.58873069      -0.12116835       0.00755946      -0.01117745      -0.08499853       0.95769358       1.28210914
H        8.54398128       8.35263643       5.23368743       0.03011388      -0.22215423       0.15469083      -0.38389483       0.03201484       0.56501460
H        8.67844757      10.09117362       4.87930758       0.14048552       0.11428501       0.21831081      -0.15789014      -0.45140678      -0.23399949
C        4.58058724       9.76474241       6.09310813       0.97080769       1.10445543       0.31088192      -0.68357748      -1.63639867       0.25536451
O        6.65469695      10.46930873       6.85373876      -0.18916599      -1.03786728      -0.74210128       0.21497735      -0.55003238      -1.05848420
H        4.35075079       9.65153575       7.17080258       0.04067767       0.05738276      -0.01447320       0.23848516       0.41380852      -0.64290929
H        4.22516163       8.82919300       5.63294818      -0.01661828       0.01540317       0.03836167      -0.15842980       0.63656104      -0.10124768
H        4.09934472      10.64125204       5.68983058      -0.25071159      -0.04430060      -0.03703025      -0.34509358       0.10876968      -0.12283407
N       18.55691692       0.33994149       6.36078411       0.02895384      -0.08716098       0.43911477      -0.40965715      -1.20803463       1.45279050
C       18.03126980       1.28664451       5.44835497      -0.99312518       1.02654109      -0.36890113      -0.78912908       0.41232663      -0.47957051
C       17.84964987      -0.07211311       7.47194664       0.58843541       0.66549793      -0.00421112      -0.38758582       2.24928164      -2.27474546
H       19.44173048      -0.08683730       6.17442957      -0.25026081      -0.05758718      -0.08771010       0.24545093      -0.17885572      -0.22425579
H       17.56737264       0.85154787       4.53827530       0.31182392      -0.32223663       0.09119428       0.64596224       0.11055762       0.31324524
H       18.79050869       2.02545159       5.22590045       0.19860353      -0.19510347       0.05857535      -0.09048620       0.13425526      -0.46139872
H       17.21415181       1.76031352       5.97315988       0.17730902       0.59593247      -0.13448810      -0.06493010       0.35156730      -0.05722271
C       18.54342642      -1.02885435       8.32609890      -0.49509960       0.63529006      -0.85635786       1.12856710       1.67747116       2.22996712
O       16.73328919       0.43557752       7.68257200      -0.82311485       0.19188830      -0.83244521       0.50899243      -1.06518757       0.35183409
H       19.54992789      -0.57636677       8.65460395       0.38570468      -0.07746469      -0.09699689      -1.54056191      -0.67583615      -0.35182208
H       18.72411536      -1.94727466       7.88368241      -0.00874808       0.02485795       0.27630385       0.31272343      -1.70572972      -1.05566406
H       17.89263170      -1.19513852       9.17218415      -0.09003289       0.18463279       0.28744879       0.21458884      -0.26072758       0.24852422
N       15.97175622      16.58607101       6.13356358       0.91829460       0.25092368      -0.12329681       1.18891525      -0.28453022       0.75759757
C       16.61335065      17.51363803       5.23778662       0.05988859      -0.33200267       0.27222974      -4.44749069       0.77298290      -2.36197662
C       16.55011148      15.85214048       7.08058512      -0.20231736       0.45228683       1.19207190       2.72005987      -0.62367439       0.56862539
H       14.98939995      16.54945319       6.16740466      -0.07760965       0.02112020      -0.03448526      -1.28000951       0.40244812      -0.45694715
H       16.30888853      17.19353923       4.16291757      -0.15114971       0.00109593      -0.14649742       0.63826001       0.69293129       1.65740824
H       17.62377551      17.55382211       5.28439920       0.32732903      -0.29780617       0.08166645       2.94885182      -0.20659876       0.54054892
H       16.19684603      18.55956698       5.38670923      -0.36974775      -0.00962493      -0.07951468       0.53924167      -1.23925531      -0.06901319
C       15.55151010      14.95674370       7.89436507       0.39481227      -0.10789645       0.35572861       1.60286832       2.41073799      -0.56172746
O       17.82906982      15.86398010       7.27934366      -1.42453668       1.09464817      -0.35026556      -3.59612417      -0.25950235      -0.51811707