832
Lattice="20.291425148346004 0.0 0.0 0.0 20.291425148346004 0.0 0.0 0.0 20.291425148346004" Properties=species:S:1:pos:R:3:momenta:R:3:forces:R:3 mol_liquid.pdb=T energy=-304062.96875 free_energy=-304062.96875 stress="0.0059217410162091255 -0.00019777995476033539 0.00032316011493094265 -0.00019777995476033539 0.0029688337817788124 -0.0015426261816173792 0.00032316011493094265 -0.0015426261816173792 0.005519489292055368" pbc="T T T"
C       19.55405846      13.61986289      -4.77997937      -0.16818772      -0.27215248       0.51705728       0.39773625       0.79420686       0.21505293
C       19.82852143      15.10871108      -4.44012426      -0.18065711      -0.17094716       0.41594780      -2.26833773      -0.34340376      -0.63706946
C       18.06345797      13.34872879      -5.01254146      -0.31677471      -0.14609475      -0.78033190       0.47678244       0.33594310       0.33167019
H       20.07619813      13.10540035      -3.95332197      -0.12044174       0.08697260       0.03211580      -0.75647521      -0.54231632      -0.43137091
H       20.03623598      13.32903654      -5.74769392       0.24355438       0.22611010       0.07775042       0.04581529       0.51115918       1.03912759
N       19.13936578      15.51703815      -3.16528644       0.21766330       0.47435530      -0.12002757       0.47091913      -0.63321066      -1.05793118
H       19.39985256      15.68243855      -5.29092052       0.02572635      -0.08087635       0.02461713       0.50735629       0.02914885       0.37150463
H       20.88797071      15.20792228      -4.42655127      -0.08221023      -0.28774087      -0.32786695       0.64382637       0.65613389       0.29807681
H       18.18150762      15.85409874      -3.39492784      -0.14565524       0.14658512       0.19481780       0.78129393      -0.23506171       0.03914171
H       19.60891855      16.32337153      -2.78737569       0.25449551       0.14343797       0.10757933       0.16501182       0.08169817      -0.00440422
H       17.70394284      14.08705817      -5.72149421       0.21916331       0.09936617       0.04744803      -0.06642081       0.39749992       0.20494665
H       17.40428886      13.36222950      -4.12451325       0.08673092       0.18139717      -0.01278650       0.53343761      -0.24215662      -0.52188838
H       18.01538532      12.46323429      -5.60877721       0.46535726      -0.22252439      -0.06950286      -0.58801597      -0.97882283       0.24657974
C       21.39704331       6.45544861      13.12155517       0.17967083       0.56869424      -0.26946982      -0.50608855      -0.58208239      -1.41692924
C       19.91594629       6.72339589      13.36482991      -0.04583761       0.55516481      -0.24799751       1.30419159       0.65173101       1.77526569
C       21.59906546       6.63946173      11.62377030      -0.28021826      -0.07674218       0.34918690       1.17764664       0.39378369      -0.61801183
H       21.73441339       5.45432335      13.35971303       0.10909328      -0.19917267       0.06049178      -0.48149398      -0.46612921       0.30236903
H       22.10319208       7.04672713      13.64920531      -0.13951759       0.02958675       0.07089764       0.10546585       1.17517757       0.66164279
N       19.58572265       7.14863920      14.73328342      -0.25453217       0.97959744       0.75232726      -2.73354340       0.32799098      -0.47478965
H       19.36084969       5.84371015      13.16485810       0.10967664       0.07385913       0.00574709      -0.53222376      -0.98672986      -0.21846871
H       19.52246120       7.47761311      12.71380751       0.23252230       0.08102892       0.28049187       0.25511128       0.41692239      -0.98554611
H       18.67358907       7.64403585      14.52604875       0.02464707       0.09057869      -0.32657442       1.07501304      -0.89518237       1.21336508
H       20.12682000       7.89958235      15.12357235       0.24677205      -0.22683170       0.22805726       0.83458769       0.32195467      -0.44882849
H       21.15642847       7.60852742      11.31128394      -0.27324129       0.20883114      -0.07439026       0.46510702      -0.55724055      -0.02424060
H       21.10249238       5.84012808      11.05210772      -0.24501066       0.04807709      -0.10560539       0.20641577       0.36716789       0.20391271
H       22.70343940       6.64267591      11.38470082       0.26805629       0.07371391       0.18781050      -1.20387173      -0.03823495      -0.04917121
C      -13.90945960      -3.56888834      29.82831072       0.70094845       0.16171555       0.37126069      -1.75943828      -0.86801910       0.70653415
C      -15.31301538      -3.92904624      30.33336968       0.64258961      -0.73153449      -0.69323922      -0.78463632      -0.59294158       0.42356277
C      -12.94390429      -4.56177732      30.49231541      -1.01917252       0.17309177       0.28733588       0.86363906      -0.02633127      -0.35097936
H      -13.76827117      -2.62422752      30.27420528       0.02590393       0.11850773       0.10474969       0.82168078       1.42902672       0.04229458
H      -14.01182618      -3.46403372      28.71489619       0.01103228       0.24251625       0.09857008       0.81838626      -0.39514309       1.01497579
N      -16.44951957      -2.99027496      29.99752036       1.27318671      -0.27674759       0.17546054       0.33821607      -1.58235550      -0.40258995
H      -15.33753311      -4.13138874      31.44832017      -0.03042381       0.17085120       0.23034118       0.22250082       0.77637082      -1.10861766
H      -15.42586891      -4.96891395      29.96113403       0.06293303       0.02210187      -0.17544307      -1.03761244       0.73128074      -0.14773856
H      -16.27568746      -2.03808748      30.22051867       0.26619131       0.25569974      -0.27318358       0.72111994       0.70229757       0.99754691
H      -16.61809915      -2.88035888      29.00496620      -0.25227165      -0.15811550       0.29130585       0.21077886      -0.78544986      -0.20824003
H      -11.93680966      -4.29107110      30.24187891      -0.14280897      -0.04371632      -0.07964879       0.68668568       0.33392265       0.04906578
H      -12.95469543      -5.60060983      30.14200103      -0.23700995       0.07889482      -0.23444976      -0.67845267       0.21029717       0.11656518
H      -12.98473591      -4.56285026      31.60815362      -0.13889358      -0.28889744      -0.12721701      -0.33966720       0.08774673      -0.94670659
C      -15.03704805      10.44336761     -10.15878035       0.22402107       0.54970282      -0.60669893      -2.42771053      -0.08520243       1.37564313
C      -14.34941721       9.42453378     -10.99192946      -0.35566542      -0.40315286       0.13374913       1.59319544      -0.16262862       1.14184928
C      -16.53615263       9.98388680      -9.96336442      -0.48845613       0.46125442      -0.31623504      -0.12043004       1.75179768      -1.46038270
H      -14.91890902      11.47209038     -10.47297342      -0.21802651      -0.12362795       0.13559425      -0.26400134       0.09204150      -0.70627505
H      -14.65389161      10.48257614      -9.14770833      -0.00841692      -0.00821893       0.01504719       0.64597285      -0.30536079       0.16963311
N      -12.92544991       9.80146551     -11.17126000       0.09863223       0.20813309      -1.14554305       0.25498235      -0.75715518       1.04641700
H      -14.77994314       9.39113559     -11.99080368      -0.12945972      -0.37100055       0.06453762      -0.16930513      -0.52472138       0.13910547
H      -14.42710284       8.46805415     -10.38699836       0.08366038      -0.10295015       0.03784516       0.13818659       0.68407321      -1.32736778
H      -12.51629986      10.13007437     -10.27214035      -0.04962716      -0.10768222       0.23479424      -0.73885643      -0.30866307      -0.82206929
H      -12.94319894      10.60419415     -11.75862833       0.22563680       0.18581794       0.09142531       0.47070932       0.76746082      -0.70959067
H      -16.77162011       9.18998797     -10.66811884       0.10923501      -0.00287520       0.07623079      -0.07262202       0.17276564      -0.29043153
H      -17.27491977      10.82991291     -10.11732590       0.07045497      -0.03694759      -0.03328723       0.85252154      -1.07078803       0.25832480
H      -16.69533667       9.53600260      -9.01855274      -0.52775824       0.17573344      -0.11077698      -0.11187387      -0.15550816       1.16097546
C       27.94809943      -6.98279142      -2.63701922      -0.40842974       0.15732711      -0.44491144      -0.64246500       0.92261922       0.47770965
C       27.44909715      -8.38848188      -2.87779520      -0.35347374      -0.91759658       0.32902244      -2.44717789      -1.56820369      -0.51716298
C       26.82964024      -6.08452937      -2.05566374      -0.17344337       0.24246933       0.30370548      -0.23094001      -0.63491344      -0.26916245
H       28.25015657      -6.56485428      -3.59156644      -0.04219182       0.17749292      -0.05355647       0.30653745       0.06411966      -0.20184626
H       28.79005263      -6.90866761      -1.93825059       0.11914179       0.08933331      -0.01014815      -0.04633219      -0.37609887      -0.49252880
N       28.37953955      -9.41327742      -3.37361513       0.78322853      -0.13338947      -0.71463018      -0.61307442       0.95403612      -0.09405150
H       26.64065013      -8.39923069      -3.65222986       0.16917117      -0.05239786       0.05903228       0.62679040       0.74087012       0.21070151
H       26.76750613      -8.80742032      -2.06354705      -0.02783631      -0.01242173       0.11363592       1.49970341       0.49779898      -0.21185407
H       29.02480849      -9.60376257      -2.64775366       0.09893030       0.07899514       0.11400064       0.90557790      -0.35082173       0.65370893
H       28.89782515      -8.98657626      -4.14142194      -0.00916583       0.11927394       0.28832650       0.07145420      -0.28653580       0.05051757
H       26.51074886      -6.48817464      -1.10098609       0.30106623       0.24174355      -0.06697617       0.10438615       0.18608697       0.35468882
H       25.92586831      -6.05993281      -2.64428524       0.11062278      -0.20543717       0.05332372      -0.26133835      -0.50839967      -0.59746671
H       27.04460843      -5.03425964      -1.98597129       0.32622369      -0.07606691       0.13429928       0.69377583       0.26628333       0.33290786
C       50.78650273       3.10162614      -2.03801225       0.56348382       0.35167885      -0.73608371       0.69533885       0.47179216       1.04601741
C       50.85984344       4.65542430      -2.22150088      -0.33570586       0.54740232       1.36124690       2.21490288      -0.35865128       2.58160782
C       51.17446721       2.38908451      -3.35967760       0.72536961       0.28910878       0.16036846      -0.75857598       1.62238336      -0.85850847
H       49.79024727       2.84076486      -1.54981677       0.13009511      -0.01308678      -0.03725207       0.79061282       0.12947178      -1.31788075
H       51.47228510       2.79171218      -1.19327137      -0.01665548       0.22625167      -0.23155162      -0.35057932       0.58893663      -1.07729483
N       50.45665387       5.34440483      -0.97352087       0.51236677       0.32946172       0.35112031      -1.14029634       1.22477102      -0.04536117
H       50.35079013       4.99455994      -3.07689783      -0.11808455      -0.00360658      -0.10907449      -0.85470444       0.19984433      -1.21701455
H       51.95516912       4.98643980      -2.31050232       0.02320466       0.07255943       0.16098166      -1.34974635      -0.79580140      -0.37730992
H       49.51106870       5.04308710      -0.59824050       0.06000079       0.06218285       0.14451825       1.50377643       0.91815060      -0.66296458
H       50.46677229       6.40243990      -1.13827999       0.14116430      -0.13549148       0.00717697      -0.39612493      -2.29867363       0.41721711
H       51.33141444       1.33701408      -3.24242138      -0.17901160       0.06915067      -0.28441983       0.43046048      -0.46661615       0.02322930
H       51.99283006       2.91221103      -3.96672243       0.05607008      -0.01590069       0.01259394      -0.63893378      -0.82506186       1.43004453
H       50.34514345       2.51291369      -4.06990620      -0.18029261      -0.12284866      -0.15885163       0.02091870      -0.28444552       0.39294463
C      -20.13761624      -8.81615596      11.17779568       0.73424443      -0.04213733       0.48220723       2.25857639      -0.75070381       1.74596167
C      -20.87260463      -8.66538167      12.47267735      -0.22908300      -0.26363235      -0.36564765      -1.13385618       0.30471975       0.83374602
C      -20.98472485      -8.81143088      10.00484265      -0.42900702       0.50789739       0.10180860      -2.20759392      -1.72800028      -1.53805161
H      -19.48608001      -9.74622034      11.21745057       0.00174542      -0.02332396      -0.28322418      -0.82537889       0.86205924      -0.08069690
H      -19.43407982      -8.00147303      11.16815957       0.05370534       0.11311702       0.03197952       0.35729933       0.44226712      -0.10095912
N      -21.95330447      -9.70395424      12.71723774      -0.33775297      -0.99025873      -0.93954736       1.13206875       1.58465254      -1.18894935
H      -21.32980443      -7.63074250      12.52677239      -0.14367784       0.03717726       0.23915370      -0.04962626      -1.37398481      -0.40124750
H      -20.16695406      -8.59287776      13.30416196       0.07242500       0.19943890       0.15647771       0.10427980      -0.43599853      -0.16237168
H      -21.61094316     -10.64950732      12.75122490      -0.31480984      -0.02008906      -0.13707192       0.52693599      -0.03252507       0.05729043
H      -22.26211775      -9.47296575      13.62359413       0.01948943       0.17451010       0.02881486      -0.80833566      -0.17300376       1.15842581
H      -20.40614779      -8.73011718       9.07886730       0.33360895       0.14551339      -0.31649080      -0.38479346       0.08976059       0.10026140
H      -21.81615988      -8.08871998      10.03913936       0.18160900      -0.14662341       0.25674223       0.61041063       0.01313182      -0.10112502
H      -21.51503882      -9.81272936      10.02468960      -0.19725439       0.14432014      -0.07717962       0.37844265       1.01017070      -0.54976135
C       12.77586013      26.43859098      10.02612369      -0.54930695      -0.33213984       1.23416410      -0.51695347       0.62099588      -1.83314192
C       12.70345272      25.67329650       8.67924367      -0.06176132      -0.31809305      -0.21132415      -0.23654488      -0.11411770       0.88020426
C       13.53613310      25.70821851      11.07411128      -0.10623903      -0.46602265      -1.02487587      -0.08176747       0.32304519       1.87727094
H       11.74346270      26.68719676      10.31826160      -0.00161745      -0.14125229       0.16911801       0.55095685      -0.15112939       0.21013880
H       13.28255504      27.40203715       9.74130843       0.02112667      -0.05751944       0.00310359      -0.59038514      -0.67797977       0.51529461
N       11.89089619      26.37386675       7.72408922      -0.66578657       1.06860118      -0.33748193       0.01331246       0.72148609       0.79741681
H       12.45381600      24.60448417       8.76680497       0.23385672       0.12373132      -0.12157449      -0.38650891       0.20028152       0.46606839
H       13.69200559      25.63937208       8.33884116       0.35678533      -0.25401531       0.19729521       1.58028293       0.05713698      -0.79630852
H       12.14192262      26.20398894       6.77518015      -0.20280719       0.09240459      -0.00643495      -0.33726704      -0.37853247      -0.41395643
H       10.92830845      26.22813364       7.97217867       0.16574537      -0.33104889       0.40596482      -0.32873109      -0.12007119      -0.51864034
H       13.31172094      24.66758517      11.16332861      -0.00454165      -0.20580136      -0.17231608      -0.63071537      -0.75610113      -0.12792626
H       13.33182267      26.13827463      12.07598309      -0.09602729      -0.21282161      -0.09746082       0.13902050      -0.25545356      -0.52496934
H       14.59833498      25.71973894      10.96095825       0.07407606       0.23583838       0.12953534       0.73539090       0.36224613      -0.30873945
C       -4.99256313      10.99353245       2.73621564       0.65170221       0.84512787       0.66298244       0.32041037      -0.81366897      -0.83813047
C       -5.79525263      10.83466601       1.41690542       0.93165364       0.31202881      -0.62179017      -0.14305902      -0.96358335       2.56062102
C       -5.54127503      12.09051912       3.57281381       0.22657170       0.48011753      -0.65984042      -1.07062697       1.15062499       0.15675066
H       -3.90651752      11.16148848       2.50122826       0.14712461      -0.10116613      -0.08232145      -0.90375817      -0.24342623       0.18795651
H       -5.08453272      10.03000385       3.28719776       0.01295208       0.07673732       0.13766877       0.21091238       0.59400702      -0.48756015
N       -5.39718437       9.58263180       0.78165372      -0.06765510      -0.18000076       0.58305976      -2.23723793      -0.00647555      -1.26442254
H       -5.78376359      11.71727417       0.85860409       0.06635706       0.37336636      -0.07378005       0.74946243       1.45154297      -1.35076320
H       -6.90157666      10.82759702       1.68501154      -0.00987392      -0.02023777       0.16387802       1.20818281      -0.68548244      -0.15077862
H       -4.62675402       9.61738491       0.12194514      -0.13740649       0.02494418      -0.07687092       0.06634293       0.64081877       0.38622487
H       -6.22366098       9.41284053       0.17359516       0.24728928      -0.03855204      -0.02095353       1.11186540      -0.81263691       0.22826204
H       -6.64349245      12.03149085       3.64901584       0.02871205      -0.00625960      -0.30376878       0.47103289      -0.06551461      -0.17765476
H       -5.31003085      13.09776734       3.19524785      -0.07013695      -0.31991514       0.12577391      -0.00405805      -0.27044994       0.00250742
H       -5.20604576      12.04208869       4.58482816       0.00963622      -0.01160778      -0.03256910       0.45065737       0.02723798       0.71228087
C       10.09209180      -0.80095568      -5.24316071      -0.47413764      -0.70524786      -0.73267473       1.05893457       0.97802961       0.53696853
C       10.70350802      -1.93474822      -5.97996320      -0.28093741       0.45206961       0.08267455      -1.48618114      -0.72227269      -3.02615452
C        8.62097663      -0.67298534      -5.48333358      -0.40220300      -0.23925930       0.45287414      -0.25865042      -1.00691295       1.47097874
H       10.68007539       0.05996118      -5.58904917       0.23763406      -0.03548438       0.06578148      -0.47316149       0.17025647       0.30172884
H       10.29568153      -0.92506591      -4.17163563       0.01636709      -0.05023739       0.09953907      -0.01673735       0.19254263      -0.13184422
N       10.20953519      -3.26347892      -5.73082685      -0.81599661      -0.31579858       0.77336987      -1.18110502      -0.94089675       2.04787445
H       11.73414892      -2.02671751      -5.88049913       0.08699879       0.11501821      -0.04389318       2.00902081       0.43413126       0.35233146
H       10.51067642      -1.82809241      -7.09187510      -0.19044857      -0.32825115      -0.30760037       0.37878743       0.47039765       0.93650484
H        9.18982393      -3.28180055      -5.83326458       0.11789566      -0.01238792       0.18281895       0.30054086       0.01884793      -0.22592710
H       10.27041471      -3.36369287      -4.69991335      -0.10238318       0.18131705      -0.34761090       0.20174073      -0.41414312      -0.70001161
H        8.37181341      -0.88561659      -6.47114325      -0.00607887       0.03956213      -0.30303937      -0.30488250      -0.37243438      -1.93498766
H        8.14248890       0.24751751      -5.25946883       0.16767336      -0.01835948       0.19558185       0.00926441       0.98849887       0.50068802
H        8.13089548      -1.45303249      -4.89021071       0.12850218      -0.12944357      -0.02036856      -0.14450842       0.21673727      -0.10054484
C       20.84658619      24.87231985      23.16287463      -0.18628223      -0.10572131      -0.66842617       1.70119023       2.05872154       0.72206748
C       19.39761420      24.44369909      22.95844916      -0.43760349      -0.76680152       0.47412956       0.70985270       0.55568278       1.21104932
C       21.68034537      24.70582183      21.87419494       0.02110065       0.42606249       0.42295221      -1.50006044       1.12007761       0.64180768
H       21.36364831      24.43616670      24.06239935      -0.11234406      -0.09070817       0.16794341      -0.86403120      -0.37103951      -0.94187403
H       20.92556268      25.94765498      23.43585131      -0.20317427       0.26051869      -0.00262554      -0.43759352      -0.33301997      -0.22344485
N       18.75098840      24.30203871      24.26717376      -0.47560087       1.05896961      -1.08035567      -1.09767151      -1.81660450      -0.65325153
H       19.57219500      23.52215255      22.43417570       0.22117048      -0.17245974       0.07919076      -1.00420499      -0.87083489      -0.10417656
H       18.79891268      25.12642234      22.33637865       0.02913350       0.01163506      -0.00875186       0.61819011      -0.03458637      -0.28796232
H       18.68959559      25.18269848      24.76100489      -0.02775434       0.22293299      -0.14530408      -0.21586336       0.18087918      -0.24476406
H       17.80559727      23.87074711      24.12623793       0.04448653       0.18276996      -0.38787867       1.25354064       0.88519907       0.43614787
H       22.61177712      25.23124239      21.80830246      -0.05336299       0.07203910      -0.13172008       0.49022961       0.31045425       0.39048693
H       21.03863411      25.10897136      21.10285796      -0.00960018      -0.27350926      -0.00134988       0.02064560       0.03994584      -0.58478904
H       21.83175614      23.69406365      21.67860245       0.26696307       0.08708094       0.07918453       0.32365009      -1.71666896      -0.45581830
C        1.55717967      -1.01135986      12.91620968      -0.16521928       0.12831985       0.17746190      -0.58834529      -1.06162894       1.92052436
C        0.90753980       0.26089212      13.47280884      -0.37501192      -0.18155659      -0.70726013      -0.18591322      -0.52339995      -0.38197201
C        1.32627787      -1.26639716      11.46076014      -0.05705567       0.01753765       0.60663870      -0.43657449       1.32253790      -1.17461705
H        1.14129461      -1.90955658      13.49570594      -0.06424495      -0.11980333       0.00438292       0.60046911       1.09019279      -0.69449967
H        2.62471065      -1.01869461      13.10581924      -0.11702548       0.08579169       0.13981808       0.33241725       0.13602431       0.21267097
N        1.27541958       1.40207217      12.65686269      -0.07162598       0.14969053      -0.50771264      -0.17157592       0.91012216      -0.50323731
H        1.19149623       0.49335419      14.50996759      -0.00359061       0.07602595      -0.19319383       0.05210681      -0.40559959      -0.22936058
H       -0.18796074       0.09549323      13.47147484       0.19045173       0.00536015       0.02799416       0.89814413       0.44896457      -0.02305207
H        2.25183217       1.34514098      12.42033582       0.07011296      -0.16277917      -0.12082998       0.51071280       0.07041097       0.42217281
H        0.87740747       1.34021624      11.72375811      -0.06742170      -0.30625607       0.10043011      -0.64069623      -0.21531010       0.40657616
H        1.76118632      -2.21771779      11.26400323      -0.15624009      -0.21048046      -0.03499691       0.27309257      -0.63757342      -0.69384468
H        1.73172738      -0.46962966      10.74012446      -0.14837872       0.00939467       0.10000952      -0.30057397      -1.18990517       1.17239738
H        0.25257938      -1.29233050      11.25871641      -0.31939755      -0.07932896      -0.04116826       0.15125087      -0.15359607      -0.07558561
C      -14.08615385      24.57086807      -1.25127184       0.03406727      -0.31064166       1.48173030       2.51987839       0.44540849      -0.90040839
C      -14.20557553      25.31199999       0.07274256      -0.22899036       0.44402161      -1.61201370      -1.17525268       0.57314211       0.74293733
C      -15.42005877      24.54358729      -1.89234583       0.12706712      -0.42156676       0.36672345      -1.28083634      -0.24499324       1.00297976
H      -13.64544392      23.55380782      -1.11163188      -0.30753741      -0.17391736      -0.18626676      -0.44600549       0.68696928       0.14745496
H      -13.35175662      25.09084731      -1.98182475       0.05627452      -0.17479715      -0.13986059      -0.92837119      -0.70332861       1.31318712
N      -12.99965448      25.40678298       0.88489484       0.69578898       0.12387202      -0.60174086       0.22341646      -1.82021201       1.08547962
H      -15.04091556      24.78336873       0.61104207      -0.03225174       0.32905704      -0.05473359       0.60888469       0.47171277      -0.23578912
H      -14.56321983      26.36244415      -0.04848978       0.00244629      -0.03032606      -0.14058246       0.12424600      -0.77924126      -0.33347601
H      -13.16223335      26.03371829       1.67735670       0.02471678       0.17354751      -0.00338739      -0.03815320       0.01923663      -0.56052715
H      -12.88713937      24.47643211       1.36348575       0.29199533      -0.28832523      -0.27576564       0.28569242       1.21801901      -0.67889303
H      -15.69663528      25.48461914      -2.26321188       0.12582219      -0.02774047       0.35508191      -0.06722899       1.37271881      -0.98652929
H      -16.21110830      24.40058518      -1.17183594       0.10464574       0.24381320       0.11363860      -0.18045735      -0.33511993       0.73064458
H      -15.63581380      23.79345295      -2.59468144       0.04950187       0.06966256       0.05035147       0.30337617      -0.88795179      -1.28143418
C       16.45616082     -14.99802320      20.22871755      -0.24353101       0.55410141       1.21599299       0.96594000       0.60736704      -0.84808660
C       15.10275635     -14.43599805      20.24997970       0.34817498      -0.81913321       0.11833466      -1.95775664       0.00370616       1.60884869
C       16.77421339     -15.51513354      18.83233798       0.15060439      -0.26934954       0.30015424      -1.25641847      -0.61567712       0.51138133
H       16.52609472     -15.75819893      20.99012043       0.24415797       0.03035089       0.35223242       0.28916925      -0.33498231       0.22339848
H       17.14031680     -14.18303828      20.47099207      -0.14101136       0.20426358      -0.00565508       0.28843006      -0.28327507       0.01800201
N       14.11338280     -15.48077676      19.91576435      -1.32507069      -0.01646522      -0.93666364      -0.94201076       1.32870042      -1.67723083
H       14.98032909     -13.55892327      19.62751906       0.00527852       0.26093477      -0.25450973      -0.03801194      -0.02941467      -0.16157131
H       14.83754918     -14.14922178      21.27961832      -0.14016062       0.07243823       0.15910584       0.31948826       0.29921871      -0.40026739
H       14.07129220     -15.55879636      18.89326108       0.04418352      -0.28594575      -0.27424737      -0.31329191       0.32100794       0.37809420
H       14.54876643     -16.33729161      20.10712364       0.08154058      -0.22275222      -0.00781135       0.43937176      -1.56340849       0.88691115
H       16.07253062     -16.34282675      18.55128526       0.00395349       0.22861026      -0.23674794       0.92652917       0.54123652       0.17230949
H       17.77538628     -15.84156684      18.83278396      -0.23700771       0.16320515       0.18830168       1.08867311      -0.60887551      -0.48059654
H       16.62884174     -14.72651863      18.11416379      -0.45336053       0.07329970       0.06723652       0.11135253       0.32137826      -0.32813659
C       21.02104634      17.26736482       0.11518020      -0.22211308      -0.52107670      -0.46548112      -1.56872249      -1.72154903       1.88903069
C       21.02740002      16.61688283       1.55704937      -0.91941729       0.47021996      -0.20974151       2.11163902       0.02533417      -1.03087878
C       19.59204301      17.24341541      -0.39946185      -0.03011171      -0.13564447      -0.09924318      -0.46642449      -0.56799245      -0.09442748
H       21.76118918      16.83041701      -0.55254244      -0.01978392       0.00966278       0.11824161      -0.18373711      -0.45529276      -0.01709181
H       21.28224201      18.26826353       0.20133226       0.05710155      -0.09427642       0.33685133       0.64125967       1.82919681       0.41307789
N       22.39933220      16.78757805       2.17907151       0.83216499       0.53459308       0.49271371      -0.88836479      -0.16564271      -1.50211406
H       20.95344042      15.52060681       1.49324974       0.04248343      -0.14784068      -0.04022967      -0.89740288       0.42491263      -0.05427885