960
Lattice="22.240674951305024 0.0 0.0 0.0 22.240674951305024 0.0 0.0 0.0 22.240674951305024" Properties=species:S:1:pos:R:3:momenta:R:3:forces:R:3 mol_liquid.pdb=T energy=-407210.65625 free_energy=-407210.65625 stress="0.003852246794849634 -0.0006068667862564325 -0.00011533522047102451 -0.0006068667862564325 0.0020794817246496677 -0.0006420824793167412 -0.00011533522047102451 -0.0006420824793167412 0.002528962679207325" pbc="T T T"
C        0.95998250       4.82045167      -2.14206264      -0.39423386      -0.54840934       0.23262947       0.64443040       0.81874722       1.70962322
C        1.30496851       5.24369664      -0.67784245       0.01453738       0.36074983       0.18423245       0.09725964      -1.22613764      -0.48655307
C        1.26417703       6.04020792      -2.98654015      -0.24759938       1.54037903       0.77569944      -0.05283344       0.77224064      -1.59041297
C        1.72635682       3.57692030      -2.59474301       0.30500717      -0.15245835       0.60519333      -1.21439946      -1.03464651       0.59402245
O       -0.45573534       4.60855371      -2.23176645      -0.48602970      -0.11739450      -0.45940833      -0.08694470      -0.21234134       0.19115674
H        1.26250123       4.44755255       0.07196733      -0.01699351      -0.18849906      -0.20473808       0.31957546      -0.21510300      -0.57439494
H        0.52050527       5.89847916      -0.33738727      -0.14233346      -0.27583799       0.00003087       0.18954802       0.89155716      -0.06946781
H        2.31433164       5.65214158      -0.70049798      -0.18822980       0.36623449       0.00322341      -0.24283803       0.32209599       0.33150423
H        0.98956054       5.83980448      -4.04221995      -0.00731364      -0.07987903      -0.05596814       0.24337012       0.08762336       0.49848449
H        2.27756296       6.48857477      -3.01099462       0.15531319      -0.15237877       0.32448624      -0.34147915      -0.77362102       0.37601614
H        0.59702947       6.83551019      -2.66012208       0.09176692      -0.13493234       0.20952779      -0.03261541       0.11080223       0.06167148
H        2.82037999       3.68596478      -2.54972790      -0.00338744       0.13584613      -0.07557349      -0.54534948       0.18236701      -0.21940228
H        1.34816576       3.30818148      -3.59393290       0.16062434      -0.07511577      -0.10514029       0.67837209       0.01627711       0.23155797
H        1.44338176       2.70747916      -1.92957405      -0.06236947      -0.02281130       0.13734204       0.32854873       0.98365724      -0.63160914
H       -0.94710699       5.27688496      -1.67054850      -0.22498689      -0.17318567      -0.03532453       0.71121836      -0.49318677      -0.77608883
C       14.59357220      39.98986350       3.69739138      -0.16515796      -0.39190504       0.18217194      -0.25178385       1.98635840       0.86606514
C       14.79527632      39.44563781       5.09806029       0.09890131       0.05532844       0.89433952       0.20600191       0.76430595       0.42105353
C       15.76676543      40.83792455       3.25373043      -0.27856969      -0.29050570      -0.06478117       0.45710075      -1.26367640      -0.43751580
C       14.24670998      38.94110999       2.74008583      -0.34502035      -0.54193551       0.25898417       1.04926157      -2.11563396      -0.52719384
O       13.48347630      40.94880282       3.77289314      -0.04005226      -0.80846982      -0.10153045      -1.12723565       0.19897740      -0.62653649
H       14.05409904      38.69883040       5.25390148       0.33128470      -0.11435896      -0.06435712      -0.46551168      -0.74710256       0.44508290
H       14.64046434      40.23107160       5.85290344       0.02130537      -0.00074372       0.07261357       0.06719891      -0.12908877      -0.34360507
H       15.80084385      39.04142021       5.26441269      -0.14093116      -0.05031912      -0.22043776      -0.28331211      -0.03749147      -0.28715116
H       15.41730256      41.21271363       2.31425049      -0.21854233       0.15980852      -0.13590125       0.36512169       0.60664546      -0.71533787
H       16.70281220      40.24926459       3.09899514      -0.08534231      -0.03377911      -0.08999181      -0.82748926       0.47381133       0.23343125
H       15.90269587      41.64372038       3.94945216       0.21474964       0.11990139       0.26193828       0.28672719       0.23101284       0.21301422
H       14.02060904      39.31227468       1.77001261      -0.14470652       0.03492577      -0.02507598       0.03947606       0.44230551      -0.79005229
H       13.42222342      38.31961435       3.03405143       0.26482217       0.21254715       0.37230352      -0.53126872      -0.08397095       0.43197805
H       15.11499772      38.25113687       2.67317555       0.20001270      -0.24611866      -0.05856322      -0.42401642       0.32120252      -0.24293673
H       13.05836893      41.15925589       2.88455150      -0.02831867      -0.10200381      -0.22477374       1.24964237      -0.69020385       1.25386524
C       -1.60369777      23.52189221       7.12093290       0.27921495       0.99358358      -0.07107546       1.04015863       1.57096791      -1.40763366
C       -1.70208002      22.36139577       6.10482622       0.38195091       0.09730514       0.45609500      -0.80975413       0.38412616      -0.08853858
C       -1.18942470      24.79315850       6.37079986      -0.26990258      -1.83218031       1.17159876       1.88225877      -0.76825625      -0.32953671
C       -2.94614934      23.90894735       7.79070120       0.18650224       0.85586805      -0.49933624      -0.73934734      -0.75850832      -0.30330181
O       -0.48558520      23.34405224       8.02572857       0.66546685      -0.36503689       0.04651181      -1.01725340       0.34469724      -0.53407353
H       -2.73984773      22.32485650       5.65991899       0.08493610      -0.02139802      -0.11460841       1.15254354      -0.04696992       0.48847300
H       -1.53797463      21.49863824       6.72742645      -0.12956324       0.18186676      -0.00563723      -0.12114549      -0.89708161      -0.26143882
H       -0.95877972      22.38645473       5.26510338       0.05933573      -0.14477674       0.10819150      -0.57181513       0.17772062       1.03700304
H       -1.23457125      25.60388146       7.06465990      -0.12646028       0.05307446       0.12953271       0.06107142       0.77493083       0.12487353
H       -1.78070300      24.94662537       5.51640896      -0.31092487      -0.00736606      -0.03280176      -1.33606315       0.44411230      -0.75820404
H       -0.16458936      24.71764116       5.89393392      -0.21817914       0.03096927      -0.03599838      -0.80186504      -0.13141608       1.01869893
H       -3.62408393      24.37762815       6.96789450      -0.19695753       0.04325536      -0.16369589       1.24616790      -0.64740372       1.70834041
H       -2.72807244      24.59977911       8.63607888       0.21433532      -0.06190407      -0.15251498      -0.34083906      -0.27233389      -0.83147663
H       -3.48881852      23.01280341       8.20225213      -0.17541140      -0.08983179      -0.09948471       0.48286581       0.79876012      -0.39112455
H       -0.48264901      22.43991009       8.31221294       0.10467426       0.32457579      -0.13467289      -0.03926547      -0.87328982       0.64082062
C        9.45953954      20.19425114      11.52856439      -0.65781262       0.19023086      -0.31184669       0.77865136       0.26401851      -0.63983005
C        8.22650817      19.67507048      10.78119906       0.56409353      -0.10176062      -0.37829232      -0.98527145       0.41420227       1.72034454
C        9.56767025      19.74014902      12.96190336      -0.49132543       0.41654418       0.61892492      -0.12546319      -1.00462520      -0.05743474
C       10.69692335      19.74424977      10.71234422      -0.85807403       0.07811892       0.08528189       0.59607571      -0.75526178       0.58657372
O        9.50870261      21.62508089      11.57046968       0.39012550       0.61023625      -0.29244117      -0.88710201      -0.27763066       0.10284085
H        8.11916018      18.60560398      10.92991365       0.11842772      -0.04182427       0.16761587       0.19458818      -0.19175611      -0.33306161
H        8.28460039      19.95684298       9.76613476       0.19470985       0.02656604      -0.00678109       0.13456514      -0.01308063      -1.20407104
H        7.26778409      20.10382472      11.14919343      -0.03334292      -0.04129303       0.06412628       0.74200380      -0.04870494       0.08400875
H       10.48109303      20.22525163      13.31030083      -0.00418229      -0.16455633       0.17508898      -0.07521788      -0.47302866       0.40637887
H        9.62665504      18.61864185      12.96478105      -0.14003349      -0.08724122       0.11235068       0.06299689       1.07255876       0.42906612
H        8.71349316      20.09185028      13.56722068      -0.04352262       0.02427951       0.05932806       0.33506632      -0.29882079      -0.32543737
H       10.49712353      19.92197168       9.65637780       0.10765675       0.09335797       0.05825252       0.16887349      -0.28234452       0.00388978
H       10.92131566      18.67280150      10.94121622       0.22946111       0.27899168       0.23523546      -0.54211897       0.61045480      -0.62861037
H       11.67199209      20.21395910      10.94510184       0.06045270       0.06982782      -0.18232406      -0.85046893       0.35962802       0.24121130
H        8.79426002      21.90008280      12.21093010       0.10331417      -0.04538003       0.25288160       0.40831894       0.04483725      -0.80814278
C        7.49772676       7.91769644      11.58931369      -0.40319332       0.57052689      -0.19045076       1.23298025      -1.25109172       0.70673376
C        6.78378622       6.78795824      10.85791593       1.00278560      -0.31626605       0.45678286      -0.78994137       0.16070677       0.29568154
C        8.80161858       8.42355593      10.88469762       0.78934008      -0.28604740       0.47762094      -0.87198246       0.65572846       0.09568942
C        6.55845882       9.02723155      11.96612142      -0.41797155      -0.34832534      -0.00840172       1.64201021       0.65395373      -1.23975754
O        7.97053465       7.34182805      12.87052240      -0.10187989       1.33090625       0.26661953      -1.15935242       0.60219485       0.86906052
H        6.20485618       7.16417424      10.02731780      -0.07744212       0.01446998       0.02259488      -0.21328609       0.25168422      -0.24499863
H        6.08940192       6.35009930      11.57439509      -0.31123915       0.05204677      -0.10454223      -0.19857940       0.04684462      -0.06353806
H        7.33903949       5.95244031      10.47213349       0.20815902      -0.01332492      -0.30905658       0.90151632      -0.04662287       0.03534673
H        9.61045901       7.69380409      11.01099460       0.17609602      -0.10074595      -0.11339351      -0.29121590       0.32223415       0.11755195
H        9.07558764       9.44133574      11.28378069       0.03576878       0.25366086       0.23264413      -0.01227987      -1.24268985      -0.25718048
H        8.63960667       8.54778030       9.80159855      -0.17112809      -0.01081852       0.28833588      -0.06790604      -0.06818306       0.38564330
H        5.85292482       8.84852721      12.70186457       0.13265657       0.06425392       0.03990235      -1.58857250      -1.14488053       1.21536136
H        6.07511215       9.40742797      11.09171925      -0.21554289      -0.01456199       0.21562206      -0.27609378       0.53906435      -0.42160031
H        7.18170655       9.75454898      12.43969892      -0.23040993       0.04732400      -0.01197566       0.31459746       1.00378025      -0.06304140
H        7.28809220       7.54896942      13.57633330       0.13297418      -0.14839838      -0.38945381       1.34710836      -0.46922740      -1.34948969
C       33.53283089      10.10047545      -6.95539871       0.47899906      -0.25562332      -0.31605658       1.68940127      -0.15449473      -2.00335646
C       32.28107947      10.61180937      -7.73512076       0.53174606      -0.47495773      -0.69030307       1.03232741       0.50595844       1.81243908
C       34.78089823       9.85477001      -7.93740942       0.24166566       0.63722295       0.50418574      -1.80965161      -1.46309590      -0.79137069
C       34.04166732      11.18749128      -6.06214685      -0.21346262      -0.02862375      -0.82620205      -1.05497921       0.81921309       1.33945608
O       33.23645319       8.90243438      -6.20391744       0.64430973      -0.20387166       1.01602466       0.12253836       0.95911169      -0.65934753
H       31.81908596       9.85586008      -8.32880694      -0.12921173      -0.13288842       0.03232641       0.00946101      -0.36642361      -0.79898024
H       32.56358205      11.55550959      -8.26568454       0.27695874       0.12062708      -0.20873500      -0.58924806      -0.93629241       0.31195879
H       31.59574062      10.78961282      -6.89253779       0.25185642       0.14905883      -0.19522720      -0.18881746       0.46147397      -0.55131227
H       35.70728854       9.70436871      -7.42951679      -0.08269300      -0.22897697      -0.13589144       0.49209628       0.01046427       0.68076479
H       34.92817195      10.58733731      -8.71742552      -0.28686525       0.28028558       0.16812473      -0.19435599       0.83859855       0.21910504
H       34.61795463       8.95300173      -8.55360153       0.04582579       0.14389667      -0.26116324      -0.11097813       0.19133860       0.55936968
H       33.22352467      11.48168051      -5.32932414      -0.06209660       0.08139427      -0.17652403       1.20517540      -0.26103324      -0.57852042
H       34.30946365      12.07609691      -6.65219313       0.23728721      -0.22222927       0.13734354      -0.23213214      -0.33776572       0.17878892
H       34.95232128      10.85054068      -5.56273887      -0.11142047       0.02303310       0.22636100      -0.29872400       0.08577359       0.26968300
H       33.03059558       8.26827537      -6.92165985       0.17387320      -0.16084148       0.00364856      -0.11257805      -0.12692687       0.27128309
C       -0.64005987      21.40481118      10.99020269       0.24429711      -0.15282270       0.91771272      -1.61071825      -0.65157861      -1.34903681
C       -0.41404284      20.30431499      12.08798520       1.23625377      -0.04626474       0.31651347       1.49843097       1.68803406      -1.71783328
C       -2.03321639      22.12897579      11.10034297       0.95132859       0.96206715      -0.15634235       0.18481401      -0.72924411       0.39368781
C        0.50590367      22.34451619      11.03471307      -0.89764573      -0.41449641       0.25597882      -0.53826052       1.79949236      -1.60626173
O       -0.63300829      20.84342141       9.61533271      -0.48624285      -0.56327855      -0.90292206       1.77750111       0.74689364       1.07860053
H        0.59051814      19.87494957      11.94976583      -0.21797698       0.21750912       0.01670016      -0.44031769       0.05746381      -0.21638161
H       -1.11166830      19.52386948      12.09594982       0.35602909       0.02856306      -0.16688958      -1.21182835      -0.85612506       0.14657000
H       -0.34438028      20.87643188      12.98423868       0.26546438       0.37560462      -0.15779350      -0.39730540       0.01368270       1.06541824
H       -2.41577660      22.71006823      10.22256453      -0.09288360      -0.17684314      -0.05220667       0.89209020      -0.75554037       0.64094818
H       -2.01617557      22.77553042      11.95303506       0.04777195       0.08648554      -0.39214452       0.15180831       0.69501591       0.47661033
H       -2.77036896      21.38132977      11.40102553       0.06536020       0.07558420      -0.14820079      -0.16086501      -0.07248067      -0.42358971
H        0.34610558      23.22100163      10.33723463       0.05613604      -0.19325098      -0.11635153       0.30432257      -1.20844603       0.53979105
H        1.40749496      21.82402980      10.82062923       0.04053210      -0.06739485       0.03768242       0.64673030      -0.30433747      -0.42792451
H        0.61327805      22.77815550      11.98712159      -0.09336537       0.03263286      -0.22677481      -0.01533514       0.41644484       1.31497025
H       -1.45589743      20.41060297       9.48634730       0.01240241      -0.20087325       0.07358824      -1.46066570      -0.82256687      -0.23716491
C       -8.54307577       4.32269875       2.20306664       0.32391043       0.83902875      -0.67157726       0.33632904      -0.88583422       0.56626779
C      -10.03424410       3.97444910       2.42701849      -0.09021073       0.03352715      -0.37872911      -0.05092603       0.92664707       0.07219431
C       -8.30928977       4.95530266       0.84706724       0.17561830       0.52438215       0.20895190      -1.62740695      -0.33205050       0.27755427
C       -8.03470015       5.12742429       3.37208631       0.74411140       0.44317513       0.14356258      -1.95156479       0.09952623       1.51473451
O       -7.60924325       3.17783057       2.22223821      -0.93469336      -0.51803254      -0.80916832      -1.10726559      -0.12182224      -0.80539370
H      -10.44735799       3.09520151       2.00755545      -0.01456089      -0.03313919      -0.01257745       0.36093518      -1.20734537      -0.91588593
H      -10.68872107       4.75883243       1.99949448       0.27543766      -0.08966455       0.16458165       0.56194651      -0.02489977       0.44483143
H      -10.25975802       3.86644408       3.47697108       0.16936420       0.23736343      -0.08530470       0.02651687       0.26580283       0.42642832
H       -7.27500288       5.00502643       0.72098576      -0.20671414      -0.18328494      -0.16600605       1.62497342      -0.21358570      -0.62213635
H       -8.63629490       5.99456604       0.80107384       0.18025362       0.01245618      -0.13624581      -0.51402307      -0.24345192       0.00761970
H       -8.81245171       4.29594566       0.10499514       0.18010330      -0.15371830      -0.07488519       0.54010630       0.87579846       0.18721831
H       -8.76612987       5.95161273       3.59602571      -0.00072641      -0.01729083      -0.04137712       1.23499799      -0.17009327      -0.37593850
H       -6.99328319       5.35887534       3.23752253       0.04802972      -0.11571695      -0.17286753       0.19104061       0.64141810       0.00739021
H       -8.12514252       4.48191032       4.28852496      -0.01717681      -0.15733522       0.01984196       0.26317665       0.44629610      -0.85069573
H       -7.75032218       2.57834764       2.96816884       0.02662162      -0.15153763      -0.09117931      -0.33903235      -0.03573114       0.25647596
C       20.75955587      11.39666125      31.62554654      -0.63007492      -0.48767261      -0.09380849       0.84922910       0.11683163       0.77407801
C       20.07286578      12.70684159      31.22151582      -0.43499466      -0.24330692       0.25086688      -0.68404424      -0.79695129       0.33924454
C       20.48157710      11.08785425      33.08525233       0.09139938      -0.71292142      -0.86290803       0.61889148       0.05437583       0.17911683
C       20.31665328      10.27431052      30.75644609       0.83709375       0.27893939      -0.29740480       0.29307863       0.07765009      -1.34638739
O       22.22568814      11.45829574      31.41978015       1.00588370       0.08680256       1.27535010      -0.63437116       1.19749141       0.68150604
H       20.47264705      12.98399157      30.22000271       0.14488832       0.17152331      -0.09686175      -0.43285230       0.30745080       0.88622093
H       20.20763887      13.45018234      32.06496227       0.01159556       0.21226708      -0.19631564      -0.21432599      -0.52587116      -1.43049121
H       18.97812612      12.37840378      31.12767620       0.05412764      -0.06923314       0.20921475       1.36220324       1.07104456       0.10774271
H       21.12247468      11.74782597      33.70186528       0.08286239      -0.31272531      -0.12193732      -0.83719808      -0.24406955      -0.03933360
H       20.77267539      10.06894231      33.29404710       0.18940315      -0.06388621       0.30822694       0.30623847      -0.34179282       0.07362580
H       19.40949395      11.11823165      33.29612344      -0.06741505       0.08197295       0.06087723       0.24372357       0.50618088       0.17661414
H       19.37271598       9.82100364      30.93066489      -0.04775537       0.00238789      -0.10670340      -1.29501081       0.40722114       0.47516471
H       20.95180890       9.41779158      30.84963032      -0.02420195      -0.11486670      -0.11421148       0.94894379      -0.19695894      -0.20440325
H       20.31133836      10.69013752      29.74605548       0.06308191       0.07427791       0.18681408       0.10236505      -0.68419147      -0.20079288
H       22.59138137      12.25556759      31.88674815       0.07505494       0.03770352       0.09059263      -0.41598141      -0.95162696      -0.41014510
C       11.80106749       7.89098383      19.58447456       0.23519739      -0.26272641       0.06915783       0.62919092       2.31680727      -0.52797532
C       12.86883598       7.79214226      20.63784605       0.95832312       0.22850504       0.74119982      -0.07437792      -2.00323963       1.03719020
C       10.72217719       6.86778298      19.75681977       0.81933492       1.03864269      -0.49088601       1.14111292      -2.13863468       1.70018888
C       11.27156022       9.37387774      19.52810216       0.43987338      -0.02465358       0.23482812       0.15312414      -0.79035509       0.04351468
O       12.45149625       7.64032355      18.32096219       0.29509450      -0.54171842       0.39028849      -0.01539558      -0.30872384       0.89208949
H       12.51657779       7.92646985      21.65866094       0.15397883       0.14475560      -0.04621768      -0.40313935       0.35500279      -0.05689879
H       13.76206920       8.34720374      20.52895684      -0.12564703       0.10764334      -0.21465437       0.55512381       1.11839890      -0.58654571
H       13.22196831       6.75669469      20.65716520      -0.24010010       0.12398558       0.05725304       0.01409278      -0.07727933      -0.18312295
H       10.31392704       6.62981824      18.79037319       0.12946638       0.05193247      -0.13405930      -0.57967782      -0.01140546      -0.15281814
H        9.97681277       7.10574770      20.52927018       0.10665521      -0.10032618      -0.01704128       0.10421063       0.07502952      -0.47177333
H       11.28351031       5.91836038      20.13427031       0.06433663       0.06278934      -0.25030635      -1.24749982       1.35721898      -0.74820054
H       11.85338112       9.93680770      18.81621132      -0.01267777       0.37225847       0.01409294       0.65555072       0.15196888       0.13221936
H       11.31215267       9.84588753      20.50971736       0.06931141      -0.09299399       0.13243512      -0.17236216       0.00330660      -0.11727668
H       10.28760615       9.44004511      19.09904327       0.20304733       0.45375032       0.04027135      -0.66256732      -0.17149374       0.17716941
H       11.79917897       7.98173362      17.72063001       0.09137355      -0.09803136       0.20759181      -0.06663980       0.23421240      -1.27962637
C       13.53072578      30.58422030      10.04789921      -0.05768186       0.49734618       0.18406950      -1.53970683      -1.86384535      -4.09627438
C       13.27437565      29.12611362       9.42038079       1.17484868      -0.37442743       0.22854445      -0.35968244      -1.13454497       2.57840848
C       12.18189979      31.21924606      10.33304509      -0.39730687       0.01153694      -0.23680529       0.42361099       0.38756472      -0.55911750
C       14.43054193      30.72621898      11.20188163      -0.81002179      -0.12803866      -0.08097693      -0.68342751      -0.11266693       2.08805275
O       14.13208033      31.16350278       8.84311829       0.39215872       0.15005077       0.48631200       0.01474777       0.79765546       0.70022404
H       12.62004191      29.07143606       8.55248077      -0.08145086      -0.19745538      -0.10993478       0.03298859       0.91547972      -0.02942743
H       12.72764313      28.43248050      10.16650962      -0.10158844       0.23240654       0.32086102       1.18010390       1.00570488      -0.93272924
H       14.21090769      28.63366358       9.10329639       0.06233876       0.21309271      -0.11748279      -0.28933066       0.34924263       0.46530646
H       11.75568788      30.72483164      11.15483838      -0.06634781      -0.00475066       0.00530022      -0.57708162      -0.62013954       1.27446473
H       11.45550163      31.16037070       9.53794517       0.00355061       0.10633185       0.18441240       0.12731268      -0.17276013      -0.52329516
H       12.29232930      32.25655347      10.59503040       0.06905390       0.16865539      -0.24123615       0.14693774       0.52193487       0.15257309
H       15.41472702      30.33070979      10.98110607      -0.13615139       0.06692521       0.15195804       0.00194778      -0.09244688       0.22702572
H       13.91126174      30.19294115      12.09299441      -0.24294597       0.11109688       0.06974554       1.30541134       0.91975510      -1.35958171
H       14.48933197      31.82464276      11.44262559       0.17758873      -0.12369082      -0.03555537       0.10491227      -1.12020314      -0.07565719
H       14.12921957      32.10889528       9.02010147      -0.09311418       0.02822380       0.26662579       0.20752260       0.28692028      -0.06815719
C        8.77342321      -2.82190711       0.43061464      -0.10705127      -0.25367164      -0.14162099       1.36504579      -1.82252610      -2.17465115
C        7.41429416      -3.26337110       0.91052789       0.24001964      -0.31067745      -0.72478448       0.94922405      -1.12921953       0.10399341
C        8.67827446      -1.62230289      -0.46781661      -0.69864320      -1.00984696      -0.34269137      -0.24265641      -0.07440692       1.30782294
C        9.79601844      -2.62929607       1.53432470       0.35081205      -0.90124870       0.24340972      -0.84209138       0.53132504       0.82527524
O        9.27162477      -3.85229550      -0.49717030      -0.40333916      -1.02299119       0.54222537      -0.08864218      -0.49397773       0.95079225
H        7.28668766      -2.75941869       1.84037316      -0.24506534      -0.36741350      -0.04108482      -0.79792565       0.11189192       0.78783566
H        7.44877044      -4.38724061       1.03209841       0.10638294       0.00273579      -0.00393748      -0.36994398       1.32986498       0.07290442
H        6.67945054      -2.94769802       0.19365116      -0.03661939       0.13976283      -0.17322542      -0.53772032      -0.15251520      -0.10805589
H        9.65715780      -1.28999815      -0.71474941      -0.02594740      -0.34078098       0.12400499       0.41651642       0.61915082      -0.17052433
H        8.16061873      -0.92323665       0.16300452      -0.02480165       0.07332911      -0.07531723      -0.32177037       0.99704981      -0.37321916
H        8.15353527      -1.87169648      -1.36370869      -0.10692921      -0.01565756       0.21706340      -0.53607529       0.06600708      -0.34246522
H       10.84916280      -2.60695385       1.23242344       0.11960817      -0.16929866       0.04571641      -0.56423998      -0.32971495      -0.04318920
H        9.60875965      -3.30663812       2.39099958       0.11476883       0.00338018       0.03161599       0.36350909       0.12478767      -0.58395153
H        9.52722925      -1.63593714       1.88880940      -0.15826846      -0.13487179       0.36580582       0.35521033       0.18862961       0.51888692
H        9.36142042      -4.66065440       0.05800680       0.35353339       0.07984430       0.04797882       0.26397687       0.32532132      -0.77327895
C       -5.45556170       2.72149870      -0.40829880       0.22188704      -0.39932016       0.01991908      -1.94324493       0.45928425      -1.96379578
C       -4.40589644       1.73859037      -0.91189415      -0.28635757       0.31558380       0.09684137      -1.73148096      -0.56997734       0.57145125
C       -5.27370306       4.07879726      -1.17174475      -0.47453434      -0.99626631       0.58106054       2.04531479       0.02536978       1.70370531
C       -6.86042647       2.04166071      -0.56200284      -0.03396350      -0.33588849       0.64600431       1.46015525       2.07650900      -0.47875041
O       -5.32140840       2.97756230       0.91309396      -0.97517784      -0.52979194       0.91429933       0.12740688       0.39735669       4.00328016
H       -4.68043311       0.81251161      -0.42250904       0.08231798       0.02200346      -0.10358180       0.20197636      -0.54213500      -0.14722027
H       -3.40933218       1.94718384      -0.63559452      -0.38827633      -0.00975327      -0.13035148       1.06575429       0.67782575       0.10489162
H       -4.54590843       1.63868951      -1.97400203      -0.33949037       0.03368057       0.15240780       0.27513403      -0.15698008      -0.43749180
H       -4.14505572       4.13892271      -1.20931439       0.09439731       0.27342756      -0.03306021      -1.10979092       0.44828516      -0.04726015