896
Lattice="20.83854396871218 0.0 0.0 0.0 20.83854396871218 0.0 0.0 0.0 20.83854396871218" Properties=species:S:1:pos:R:3:momenta:R:3:forces:R:3 mol_liquid.pdb=T energy=-501224.28125 free_energy=-501224.28125 stress="0.001273822272196412 0.002922407351434231 0.001831944566220045 0.002922407351434231 0.0028213413897901773 0.0010066964896395802 0.001831944566220045 0.0010066964896395802 0.005219390615820885" pbc="T T T"
C        2.09787993       8.41686065       7.07115814       0.41716083      -0.60389322       0.49749275       1.71616626       0.52162254       0.36323014
C        1.32387207       9.42888801       7.63064551      -0.38010755      -0.26066716      -0.60419214      -1.43296599      -0.72878641       0.44850588
C        3.43281049       8.76949190       6.67058214      -0.52794589      -0.75665712       0.61808072      -1.55385160      -0.70548892      -0.19416057
H        1.74770349       7.37292470       7.12768379      -0.13657962       0.19620617      -0.23393822       0.21880288       0.67470622      -0.47767550
N        0.03903847       9.11089985       8.15571688       0.26685739       0.97575075      -0.66355589       2.06600809       0.98774505      -0.01401214
C        1.84678601      10.71987228       7.75971748      -0.49442054       0.33674710       0.00653922       0.11315293       0.22824359       0.41815051
H       -0.37460921       8.24684068       7.92619890      -0.00824731       0.14344387       0.07993404      -0.38511261      -0.74462408      -0.41443807
H       -0.58525390       9.85554279       8.36779381       0.13105088      -0.08571345       0.18846115      -0.18106620       0.27455056      -0.17819807
C        3.16388230      11.01199245       7.44754206      -0.21042989      -0.20416012       0.03981115      -0.36418712       0.51312691      -0.56712937
H        1.21964202      11.48724160       8.18069191      -0.08654603      -0.00985200      -0.12216076      -0.14645824       0.12841757       0.12180520
C        3.94014775      10.04621058       6.82439097      -0.69598651      -0.75911840      -1.12476990       0.71492243       0.16019554      -0.04816782
H        3.59816566      12.01443047       7.57670230       0.10243009      -0.28836772       0.41382232      -0.58434296      -0.66867459       0.05777627
H        4.94272949      10.36538965       6.49206810       0.01054931       0.13890608       0.06425793      -0.58592033      -0.65342540       0.20031792
H        4.00349748       8.00542547       6.17366093       0.25330970      -0.14526043       0.07323754       0.30597717      -0.10829012       0.00019092
C        5.56115232       1.58791321       0.88394588       0.40917011       0.06636729      -0.16778094       0.59520888      -0.46847829      -1.55290675
C        4.47022754       2.10704577       1.50268029       0.14464024      -0.63218464       0.33899680      -1.59893310      -2.15394354       0.93279743
C        5.56943212       0.26257399       0.34652151      -0.04548430       0.24227278       0.21556213      -0.03266381       1.48128152       0.98745263
H        6.36155193       2.29862126       0.73787247       0.18197169      -0.05848775       0.17563251       0.52668166      -0.42831659      -0.06147291
N        4.40284035       3.31196853       2.15901331      -0.36357032       1.50046130       0.01598485       0.69380772       0.85186118       1.27936625
C        3.37607525       1.22403933       1.64296282      -0.06844339       0.09516531      -0.45197707       0.86139166      -0.41090423      -1.05623114
H        4.09552485       3.12216798       3.13727727      -0.12265027       0.22332411      -0.04762601       0.29444367       0.49448311      -1.07985032
H        5.34543322       3.72030102       2.17322337      -0.05267646       0.29119800      -0.13403882      -0.65281188       0.06872705       0.21922408
C        3.36465439      -0.02235467       1.09504073      -0.87451014      -1.17656031       0.44484395      -0.02149025      -1.89113021      -0.47454518
H        2.48798855       1.39762908       2.15392689       0.08227852      -0.19480347      -0.23604264      -1.24684048       1.27961659       0.92356563
C        4.51925302      -0.60533365       0.48299311      -0.42080677       0.07109290      -0.11005308      -0.97426957       1.64131188       0.32858288
H        2.39308038      -0.53844230       1.18646431       0.08525471      -0.16189224       0.09742398       0.82879156      -0.14891669      -0.06750627
H        4.63628625      -1.59741122       0.09521960      -0.07097296       0.07563859      -0.16357528      -0.40946832      -0.32467833      -0.01641244
H        6.45165210      -0.08646274      -0.10232345      -0.23988137       0.11068664       0.31968304       1.07555962      -0.25995833      -0.55007589
C       13.69488796      -3.02754714      16.98152605      -0.62855524      -0.73644650      -0.08521736       0.54820871      -0.94476444       0.90528286
C       14.02744118      -3.98974034      16.03304996       0.67903762       0.41274373       0.06390555      -0.20800082       0.01001483      -1.34838462
C       14.52101025      -2.93204515      18.10880880      -0.54932779       0.36319993      -0.62612311      -0.60124218      -0.82794821      -1.61805677
H       12.75197815      -2.51561455      16.91640523       0.01682199      -0.11450584       0.05423223      -0.03191271       0.31784490      -0.14384246
N       13.24023696      -4.05765135      14.85569060      -2.12335566      -0.01794414       0.29027654       0.18467136       0.76091146       0.38931912
C       15.17422023      -4.76704109      16.10174239       0.27075135      -0.49535648      -0.33448896       1.65530300      -0.58980513      -0.09482113
H       13.22482350      -4.90529909      14.35480136      -0.17661813       0.21587787      -0.02066337       1.12271118      -1.40704560      -0.58994609
H       12.29755077      -4.02240886      15.12912092      -0.18690442      -0.00373449       0.02338079      -1.56147218       0.81421602       0.40928701
C       15.99588428      -4.68522147      17.22825069      -0.14989088      -0.05528532      -0.76824568      -1.58043885       1.87736225      -0.66116393
H       15.52716230      -5.34888511      15.23081794      -0.11429178      -0.15210805      -0.09321071      -0.67779183       0.26877087       0.65007234
C       15.62567641      -3.73550884      18.18847762       0.12862046      -0.48539866       0.62011330       0.98517972      -1.26363707       0.01219808
H       16.96370750      -5.11806963      17.31638035      -0.25574737       0.02853967      -0.06607449       0.27470788      -0.63064975      -0.12116310
H       16.30732190      -3.70892087      18.99244336      -0.16644481      -0.00217607      -0.41346324       0.39965844       0.53631467       1.17077243
H       14.27543403      -2.29271204      18.89217537       0.15379628       0.14829592      -0.10154711      -0.33115655       1.03908420       0.99232411
C       21.33271304      10.24283458      -0.56965037       0.16426000      -0.02436767       0.88694048      -0.50818259       0.16036393      -1.60771823
C       21.75896110      10.40642468       0.71239982       0.04021351       0.93444605      -0.17378500      -2.33695555      -0.36332810       1.11684680
C       19.98563713      10.11991809      -0.89949561       0.01590410       1.00623499      -0.21534686      -0.65433437      -1.57102752       0.04337974
H       22.09342892      10.20824267      -1.32457559       0.05370591      -0.05775683      -0.07179144       0.05211703      -0.15657826      -0.50270218
N       23.06989908      10.37094819       1.07246273      -0.06957697       0.76052166       0.30037073       1.49227321      -0.00903808       0.82993972
C       20.74848932      10.48797402       1.67279660       0.49242848      -0.38006518       0.87230605      -1.18285739       0.08398709       2.00558472
H       23.16480741       9.95133244       2.00311316      -0.48178588       0.11183001      -0.11033283       0.35165954       0.17228946      -0.79635000
H       23.63151380       9.92615772       0.35301346       0.11526482       0.17155681       0.18786544       0.07078961       0.06130796       0.49229306
C       19.37270172      10.32654583       1.39598548       0.20660885      -0.15549435      -0.35932255       1.19962764      -0.69096875      -1.69094324
H       20.97284302      10.56655850       2.76790566       0.03343311      -0.00367865       0.27731949       0.15798670       0.11200760      -1.19566786
C       18.98870571       9.99219328       0.07738151      -0.78864188       0.12920065      -0.32573443       0.79295683       1.80850077       0.52577448
H       18.64120442      10.35539020       2.16795645      -0.20703493       0.14118625      -0.13271218      -0.18828166      -0.03868248       0.56102264
H       17.95780425       9.83015343      -0.22610098       0.00052093      -0.10005391      -0.02829053       0.28602681      -0.03299120       0.26607957
H       19.64223069       9.84082745      -1.89766304      -0.00291225       0.08410839       0.37090914       0.78734356       0.46961957       0.35919642
C        7.03618617      -4.63803645      16.77030955       0.57938432      -0.17977586       0.30630027       1.45517802      -1.36335063      -2.41140556
C        6.47634732      -5.81608793      16.25697338      -0.39390532      -0.88738813      -0.12444056       0.82489502       0.63496101      -0.51055950
C        6.30396312      -3.78378513      17.48663517       0.40538395      -0.42924624      -1.09786496      -0.18465662       1.44427681       2.33514977
H        8.06496924      -4.42617657      16.45532734      -0.05802265       0.10758299      -0.02688112      -0.38846296       0.01866128       0.64105392
N        7.29348556      -6.66164787      15.46263612      -0.00112269      -0.18903286       0.80108390      -1.13319981      -1.04886508       0.85702562
C        5.13794915      -6.05937794      16.47525789      -1.20347863      -0.46355355       0.50712183      -0.02023429      -1.36083746      -0.12539276
H        7.13151373      -7.63149170      15.77163016       0.11700514      -0.52010049      -0.00480224       0.35370487       0.58252108      -0.37254196
H        8.27172394      -6.43986515      15.53761774      -0.12457581      -0.05754236       0.17776680       0.08029309      -0.07325609       0.06353167
C        4.36752740      -5.14072874      17.17255835      -0.36525983       0.27207608      -0.28510474       0.06199733      -0.73114765      -0.23720862
H        4.75428453      -7.07825539      16.24575278       0.09015531       0.16937857      -0.07517776      -0.02352823       1.09204054      -0.19156989
C        4.96119772      -4.04002456      17.75381492       0.23703299      -0.29055646      -0.43941938      -0.55126262       0.76566017       0.88721669
H        3.32599793      -5.40150625      17.20676654       0.01187528       0.23595071      -0.09583427      -0.20020989       0.40360296       0.76224720
H        4.42185156      -3.44251351      18.51677363       0.07840084       0.24252465      -0.05820436       0.24794048      -0.34704596      -0.91608316
H        6.87469055      -3.02021757      18.04641379      -0.33427861       0.08119159       0.15336909      -0.75185204      -0.06299262      -0.58514458
C        4.66497906      12.81239170      12.89375086      -0.16625839      -0.92753441      -0.76869360      -1.56853485      -0.00540263       0.03525548
C        5.74617195      12.17102006      12.36781448      -0.08029287       0.43374321      -0.01294652       0.95151883      -0.17909299       0.23156112
C        3.41001826      12.61357196      12.33017947       0.79295689       1.61971744      -1.13121694      -1.41537547       0.45186025      -0.55904102
H        4.74926915      13.39284104      13.79177709       0.16532887      -0.06357943      -0.16945123       0.16090249       0.22588995       0.22493589
N        6.96612405      12.32388040      13.01320212      -0.58493504       0.42983558      -0.34566458      -1.41986263      -0.19252899      -0.27754819
C        5.56178123      11.25448911      11.29979644      -0.68939566       0.57199274      -0.19442909      -0.10648789       1.26617086       1.40895176
H        7.69690054      11.84524773      12.57332742       0.12396123       0.03198103       0.01458540       1.61178923      -0.31170589      -0.28508699
H        7.11862419      13.07834260      13.66604795      -0.13055265       0.01309157      -0.08940817       0.03992926       0.01762069      -0.26423973
C        4.34393827      11.07447613      10.72891309       0.18005943       0.27387250      -0.00160147      -1.79397571       1.93900836       1.01599312
H        6.36817876      10.66459488      11.03184434      -0.26339074      -0.01619504      -0.10865313       1.42296195      -1.01362205      -0.62481141
C        3.22950587      11.87225640      11.15770702      -0.68337118      -0.04423437       0.21963875       1.27196693      -1.22417092       0.28592062
H        4.17433688      10.32689362      10.01970181      -0.05727331       0.02575231      -0.22764001      -0.03865603      -0.71511519      -1.13651586
H        2.29518837      11.72999288      10.61852605      -0.19506138      -0.13966596       0.16208621       0.03089496       0.18511900       0.52890712
H        2.52116879      13.04858481      12.82928636      -0.07427841      -0.08371854      -0.29227885       0.67576021      -0.08850625      -0.52789146
C       20.01656417      12.94328428      11.10081525      -1.12041824      -0.16660769       0.82643657      -0.41048798      -1.91850471       1.12025702
C       20.36385120      12.86711238      12.47185115       0.71109427      -0.06075724       0.08604751      -0.36186796       2.18237591      -1.36532211
C       19.70205943      11.78155891      10.39544902       0.21557894      -0.58543824      -0.45959664       0.64587331       0.57469499      -0.34108636
H       19.84289248      13.90875183      10.72753125       0.20672626       0.03191178      -0.11412775       0.04181464       1.02329731      -0.90896583
N       20.55393718      14.11003540      13.12055936       1.39841188      -0.75158017      -0.75252209      -0.25113261      -1.71504056      -0.11221373
C       20.42856985      11.63950216      13.08307563       0.58702954       0.39611819      -0.49041828       0.01897507      -0.32159391      -0.45380002
H       20.90470617      14.06235781      14.07086583      -0.14123771       0.05024444       0.03096390       0.01184673       0.60055083      -0.48170081
H       20.72667307      14.91720593      12.52688006      -0.09346875      -0.06035092      -0.17125950       0.20355263      -0.50068909       0.74253249
C       20.12936800      10.47202493      12.36827344      -0.20045703       0.64679692      -0.09778513      -0.28457952      -0.68018079      -0.35447752
H       20.75197531      11.68847855      14.09156692       0.18567655      -0.06225793       0.14248106       0.00539246      -0.69917512       0.71400297
C       19.76413963      10.51709797      11.01322134       0.00216741       1.10481707      -1.00552350      -0.01830204       0.56609547      -0.16073689
H       20.15687034       9.48124554      12.84828428       0.13538631      -0.07630342       0.01345715       0.11517204       0.67418575      -0.06221057
H       19.54119897       9.64109015      10.38104188      -0.11302554      -0.11948067      -0.04618962       0.23997283       0.36825979       0.87889791
H       19.51860591      11.90473907       9.31334302      -0.04964035       0.38458865      -0.09751463      -0.21148024      -0.33066308       0.76741576
C        3.30328646       7.40450541      20.27445837       0.54057652       0.52440020      -0.65955970      -1.48123205      -0.56960833      -0.25078124
C        3.95433463       7.63311657      19.09311812       0.03565741      -0.27903610      -0.08800718       1.32074630       1.27231729      -0.89259195
C        2.11992504       6.67675436      20.18192419       0.08365541      -0.58677704       0.65255954      -0.87823021      -0.19330963       1.16019261
H        3.60026239       7.84640613      21.21443945      -0.08588817       0.17239641      -0.06258800       0.12912047      -0.02143741      -0.05352776
N        4.97018255       8.59478996      19.04933682      -0.00697226      -0.39316374       1.18188622       0.74100757      -0.48572955      -1.95674729
C        3.54069559       7.06116310      17.87866974       0.46744419       1.03680586       1.21025791      -0.24735548      -0.94128704      -1.30016661
H        5.59719759       8.49510023      18.22598496      -0.08071197      -0.24172850      -0.12275195      -0.65698928       0.25550780       1.08428526
H        5.48227328       8.79529117      19.87540725      -0.13825561      -0.27637028      -0.21706772       0.20552874      -0.14810815       0.64169836
C        2.33883744       6.31766390      17.80218923      -0.37671871       0.00997744      -1.19816272       1.25248408       1.00542486       2.14596987
H        4.20471090       7.14863914      16.95772467       0.27156351      -0.16764742       0.06746014      -1.03267443       0.18041031       1.47631955
C        1.60412590       6.15619765      19.00329389      -0.66930729      -0.27891220      -0.08188609      -0.30909818      -0.72053182      -1.06246328
H        2.01815226       5.88650419      16.89045853      -0.31547584       0.17472847       0.07843011      -0.26131839      -0.26412362      -0.67080015
H        0.64921638       5.56329712      18.97055479      -0.11041951      -0.04029848      -0.09910754       1.21081781       0.77674496       0.23914707
H        1.54634156       6.56234462      21.10687282       0.01985513      -0.16317990       0.07072995       0.13412149      -0.13332006      -0.35485539
C       -1.03366104      24.32828959       0.07894346       0.46446695       0.37060914      -0.42548323      -0.47801560       0.04130383      -0.15888706
C       -2.06431016      23.72200163       0.77576260       0.08772857       0.21256493      -0.10301426      -1.54850662       1.07398474       0.89521164
C       -0.07744112      23.51288154      -0.49237186      -0.20917822      -0.00888475      -0.39828096       0.35636631       0.36867657       0.24871151
H       -1.05413107      25.40092790      -0.04397830       0.14346112      -0.12402812      -0.13896138       0.29420754       0.01684269       0.18342017
N       -2.99570060      24.50336155       1.45936270      -0.34930674      -0.20239780       0.10804663      -0.06010154      -1.80677998      -0.58726329
C       -2.23968035      22.34565631       0.73782922      -0.00601618       0.18765364       0.38502015      -1.79288411      -0.24745601       1.27926207
H       -2.74324795      25.43975710       1.55637274      -0.03367088       0.13875022      -0.06939976       0.07093038       1.57858837       0.47116810
H       -3.60776471      24.06032019       2.14096050       0.11172173       0.04463755       0.21270334       0.41844046       0.26811168      -0.21051314
C       -1.35184060      21.57000073       0.10731391      -0.40068433       0.40235346       0.48719069       2.18988848      -0.87023962      -0.73698086
H       -3.09250366      21.85145973       1.25373040       0.13580164      -0.22817310       0.05703243       0.58526945       0.75750250      -0.48292184
C       -0.16759316      22.15146462      -0.41242396       0.20696903      -0.05870737      -0.19447616      -1.41033149      -0.27003032      -0.02358645
H       -1.54317861      20.50793478       0.07394610      -0.17035492      -0.02597305      -0.10611633       0.30796537      -0.12006722      -0.02673489
H        0.62866467      21.61050938      -0.82369933       0.29604965       0.36111416      -0.12240303       0.76687741      -1.06365037      -0.52080047
H        0.79480608      23.95100351      -0.93100646       0.06547667      -0.10707983       0.01555185       0.30243421       0.20512770      -0.32164747
C        8.08501755       5.28752269       5.09698770      -0.22361631      -0.31672332      -0.85559117      -1.39919388       0.95553648      -0.84004247
C        6.89496284       4.64021176       4.70806217      -0.27008153      -0.35293061       0.77421836       0.61533535      -2.76602268       1.14344490
C        8.13845426       6.62968583       4.83293204       0.16485314      -0.02194557      -0.45831436      -0.93667448       1.56436944      -1.16532946
H        8.93819725       4.85493367       5.55135115       0.05074326      -0.22325364      -0.13008301       0.32531518      -0.87244284       0.20997250
N        6.80458373       3.21021276       4.81848408       1.42702923      -0.76418482       0.37596773       0.82229245       0.88150209       1.06876934
C        5.79575273       5.30899483       4.28419798       0.78803182      -0.54466366       0.28088356      -1.90360761       0.48713613      -1.32803750
H        5.84666619       2.89849348       4.85320269       0.08699751       0.12697018       0.20045230      -0.18062432      -0.03881891       0.02695299
H        7.24454513       2.95594964       5.71452946       0.01677760      -0.01489349      -0.07703139      -0.21234202      -0.30597770      -0.75236344
C        5.83691426       6.65722319       3.94336705      -0.88094140       0.51328034      -0.14592578       1.17210245       0.37701523       1.75950646
H        4.83927361       4.77682194       4.09812594       0.07713042       0.07485232       0.00990413       0.96491349       0.34250799       0.48706180
C        7.02658261       7.33483886       4.20612370      -0.55250616      -0.31950754       0.50963288       1.70765424      -0.33571154       0.01866701
H        4.91322287       7.18983076       3.82562141       0.04764841      -0.02765142       0.13437828       0.04460387       0.09319455      -0.81285292
H        7.21219672       8.35287320       3.83071438      -0.05227691      -0.01263262      -0.22153312      -0.35105002      -0.48793539       0.66948962
H        9.07212536       7.14518270       5.05956148       0.14160371      -0.00465751      -0.03218650      -0.41557720       0.14767407      -0.15583198
C       15.83599882      21.31127422      -1.09567759       0.00897866       0.39785880       0.39466194       2.00385833       1.20602751      -1.36092663
C       15.84958996      22.70100963      -0.98925207      -0.94407881      -0.04021114      -0.51579569      -0.23932281       1.29394031       0.71318710
C       14.99849264      20.64364057      -0.28145815      -0.55697780      -0.68028320      -0.82211330      -1.12182319      -1.28555918       1.14680707
H       16.62344809      20.91588355      -1.79759733      -0.29035237      -0.28083389      -0.29928069      -1.29489791      -0.21184020       0.81272560
N       16.67880555      23.48701732      -1.77166829       0.45856848       0.22275891       0.78691992      -0.81797725      -0.46539038      -0.41448310
C       15.02295080      23.35286530      -0.05701399       0.38051934      -0.20731645       0.33817681      -0.02644221      -1.10506725      -0.77722728
H       16.74237569      24.44550227      -1.52257091       0.17429066       0.11213928      -0.14184817       0.25465593       0.59617740       0.29459903
H       17.53618328      23.08354632      -2.04962161       0.14442948       0.29941554      -0.10685449       0.84029013      -0.31613094      -0.20293641
C       14.13312212      22.64022576       0.75259698       0.11042190      -0.30373672      -0.80136966       0.84057873       2.28781843       0.11619526
H       15.07882539      24.40945149      -0.04907916      -0.14112032       0.22512893      -0.03721106      -0.01781773       0.89227855       0.29488337
C       14.15735146      21.28889771       0.66565835      -1.14112220      -0.69492606      -0.43954301       0.29572606      -1.54857326      -1.09117937
H       13.55845122      23.26403824       1.46596626       0.00942701       0.09483368      -0.05827776       0.01355697      -0.98611605      -0.45536336
H       13.46922741      20.69629708       1.20446781      -0.07606693      -0.33025344       0.29001766      -0.47877437      -0.53305256       0.60901129
H       14.97603289      19.55700255      -0.36987947       0.01933576      -0.07577889      -0.01543761      -0.09806139       0.29789874       0.34780186
C       10.34586051       2.62555880      24.30169701       0.58385762       0.29372506       0.40040925       2.10317636      -0.53946298       1.45023608
C        9.59272374       2.63211789      23.15066743       1.18950724       0.67808943       1.01890168      -1.27968776       1.11128294      -0.65031451
C       11.16676882       1.52663392      24.58918660       0.30528995      -0.33539079      -0.29483499      -0.55589259       0.29437953      -0.97779077
H       10.51264409       3.50168197      24.94821059      -0.16337549       0.37462786      -0.01007363      -0.80307764      -0.32360655      -0.53841412
N        8.81340308       3.73358384      22.88026696      -0.70954360      -0.40830091       0.97875931      -0.64848220       0.32219291      -1.24932015
C        9.63691039       1.58563212      22.23566579       0.97587906       0.31107975       0.50560080       1.37001526      -1.14190722       0.30128542
H        8.36395134       3.75435706      21.94558979      -0.03436323       0.03462867       0.12184045       0.32344335       0.24135563       1.49403262
H        8.43907536       4.30498094      23.63291176       0.06511833      -0.06504277       0.06046129       0.18783741      -0.33924720      -0.56341255
C       10.52174344       0.52643786      22.47765851      -0.45231879       0.17609005      -0.09813039      -1.46005964       0.87167883      -0.35394365
H        9.06863588       1.52889607      21.33073433      -0.33475814       0.04208995       0.13586269      -0.45175427       0.49260840      -0.20809457
C       11.21666188       0.49239594      23.65327098       0.48422053       0.14089804       0.34832269       0.95361894      -1.41968703       0.96785188
H       10.54760248      -0.31032923      21.79610684      -0.17698016       0.12976189      -0.05730352       0.20116217       0.22888011       0.00929197
H       11.73765770      -0.46096162      23.81610620      -0.13220844       0.00708355      -0.07171066       0.22012164       0.69577217       0.33431715
H       11.79767158       1.55210487      25.46298384       0.04433753      -0.15437504      -0.22149476      -0.09152859      -0.27009723       0.13256298
C        0.35360643      21.60979270      10.27186143      -0.41003414       0.04250891       0.26453286      -0.97309601       1.89819288       1.72350597
C        1.17814419      22.44432373       9.58991315       0.13397988       0.22444607      -0.76601386       1.44548285       0.01558141      -2.07934999
C       -0.25992634      22.12446557      11.42382113       0.22300893      -0.80291510      -0.42414601       0.29409739      -1.43801665       1.26695752
H        0.13004810      20.68961177       9.84980826       0.19517317       0.16946625      -0.06728398      -0.35281938      -1.62770367      -0.32737058
N        1.74913929      21.94760962       8.38852451       0.60175390      -0.21751072      -0.14368535      -0.95670772      -1.22127533       2.22907972
C        1.51129509      23.70705377      10.08599473       0.55208222       0.66469052       0.13482827       0.82339621       0.48273423      -0.09880199
H        2.04071159      22.63867596       7.79433545       0.01134077       0.11387159       0.37492985       1.07701862       2.03315973      -1.65734458
H        1.11932150      21.34467495       7.88632815       0.25715327      -0.05186158       0.23347825       0.00622801      -0.31565446       0.05427662
C        0.86275567      24.20049610      11.20663718      -0.02204594       0.33422505       0.77496864       0.39889812       0.09046808       0.45966867
H        2.38059024      24.25877543       9.63799197      -0.12732830      -0.03867705      -0.11997655      -1.37149394      -0.43819058       0.20955123
C       -0.02012041      23.38341268      11.94460259       0.51601465       0.04281418      -0.16418123       0.52876264       0.42593566      -2.04640794
H        1.13468774      25.21390706      11.51323559      -0.07406989       0.10200948       0.04059472      -0.39801604      -0.49466330       0.19268477
H       -0.61982876      23.76067705      12.73344386       0.16046972       0.21801762      -0.12008086      -0.07267100       0.16195330       0.79535854
H       -0.80335788      21.43269058      12.06406044       0.14540356      -0.03050863      -0.21856324      -0.27035517       0.17562641      -0.49257076
C       17.14569537       1.56786441      11.41290018       0.26766371       0.23928247      -0.81372648       2.08271670      -2.47441745       0.52328384
C       17.37170830       2.66186909      10.62341205      -0.02138352      -0.28019620       0.66876780      -0.04381022       0.64933693      -0.69255632
C       16.10136766       1.56747982      12.28032888      -0.45116452       0.07856627      -1.44434395      -1.16850221      -0.04377142       1.27549434
H       17.84442528       0.67464493      11.47933430      -0.13593877       0.08479798      -0.01596203      -0.80285263       1.42460012      -0.43128413
N       18.38744757       2.80789380       9.70466307       0.46419831      -1.13190477      -0.26186699      -0.70808715      -0.00186656      -0.59126323
C       16.43890681       3.68928535      10.70271461       0.21667982      -0.25775463       0.23675547       0.04794820      -0.31887138       0.48446360
H       18.33387061       3.70467173       9.26507647      -0.05810660      -0.08206871      -0.05855410       0.73393631       0.17502147      -0.20903331