960
Lattice="21.517258620519137 0.0 0.0 0.0 21.517258620519137 0.0 0.0 0.0 21.517258620519137" Properties=species:S:1:pos:R:3:momenta:R:3:forces:R:3 mol_liquid.pdb=T energy=-407196.0625 free_energy=-407196.0625 stress="0.0047179581597447395 0.001811368390917778 0.0006704144179821014 0.001811368390917778 0.003711144207045436 -0.0003245147818233818 0.0006704144179821014 -0.0003245147818233818 0.0016454788856208324" pbc="T T T"
C       12.87826169       5.81776520       3.77051139      -1.02167339       0.29289996       0.54859827      -0.04162185      -0.21970600       0.02515036
C       12.66175164       4.32693327       4.18154739       0.56382196      -0.68982537      -0.25512638      -0.88776445       1.75032187      -1.70430017
C       14.22965570       6.29874897       4.27242739      -0.92120547      -0.50291365      -0.78625156       0.47828555      -0.52656043      -1.67662525
H       12.23026635       6.33354234       4.41841978      -0.49001966       0.21971164      -0.24530634      -1.19235110       1.01414537      -0.00027716
H       12.68595121       6.09871558       2.70643484       0.10301152       0.03529965      -0.21263370       0.08052953      -0.60672522       0.83383334
C       11.25371353       3.77355422       4.16060325       0.15376117      -0.44975946      -0.09316568      -1.38848579       0.11902168       1.10304260
H       13.07385433       4.21841818       5.13440314       0.00665074       0.06915973       0.03715340       0.55468225      -0.20084789       1.59498453
H       13.23556438       3.78310026       3.50835434      -0.10399884       0.20217919      -0.12547263       1.15640986      -1.47606075      -1.07872009
O       10.26184088       4.74506451       4.67431347      -0.30342122       0.22065478       0.23295211       1.05015099      -0.80764651      -0.49868879
H       11.21637814       2.89671288       4.85721033       0.04345337      -0.30738392      -0.26525462       0.09529708       0.50800192      -0.77609926
H       10.85078540       3.45906146       3.19003482       0.20833251       0.24932825       0.01365427       0.46616036       0.19411591       0.12273991
H       10.78779750       5.32578158       5.23985296       0.14554624      -0.09701206       0.01449707      -0.12598343       0.02816273       0.28221384
H       15.02391283       5.69108527       3.87080559       0.16226461      -0.19643163       0.46142572       0.51171291      -0.18056357      -0.53837228
H       14.29975365       6.10043326       5.29322534      -0.10886597       0.11651183      -0.38896902      -0.07640140       0.09787925       1.91732585
H       14.48324296       7.33236384       4.06561180      -0.01465341       0.05134556       0.02220904      -0.27445078       0.15267846      -0.01843843
C       10.72217856      18.52583262      -3.07456735      -0.63911000      -0.15965698      -0.87067144       1.52633369      -1.48548174       2.65993476
C       10.81495371      19.80101976      -3.87037937      -0.04334466      -0.18890239       0.07366271       1.23196268       0.68286359       0.36156335
C       11.81843387      18.37206577      -1.88163389      -0.08107695       0.44412172      -0.75002196      -0.42447698       1.84896564      -1.71066880
H       10.78159110      17.61554560      -3.67245431       0.09001800       0.08433591       0.16739255       0.19494140       0.21689346      -0.43709180
H        9.75254513      18.40683536      -2.57091831      -0.26642322       0.10504616       0.10602605       0.19389017       0.49411908      -0.34009749
C        9.83150538      19.74815029      -4.97206574       0.16351648      -0.28975695      -0.20156016      -1.27555346       0.92837930      -2.22894859
H       11.84842570      20.08486346      -4.26964540       0.17122504      -0.25448949       0.13780583      -1.23085654      -0.90545273       0.38806292
H       10.58231847      20.67440681      -3.24293306       0.24249227      -0.04668062      -0.01736892      -0.14373085      -0.33241990       0.09199011
O        8.54740682      19.38086241      -4.52089234       0.90061931      -0.90443844      -0.51443811      -0.80044830      -0.25388026       0.79561484
H       10.02702754      19.02394573      -5.77315785       0.10675332      -0.04011839       0.00971058       0.86931747       0.26523080       0.10346914
H        9.72896456      20.75452347      -5.44622062      -0.05635895      -0.12503250      -0.02488942       0.44769776      -0.60859275       0.08250082
H        7.98397884      19.26612087      -5.30620264       0.01029949      -0.05700062      -0.07854241       0.49359265       0.28056735       0.29764050
H       11.70763353      19.23218459      -1.23215113       0.11687736       0.03194214      -0.22941479      -0.24914661       0.31750369       0.22920576
H       12.86289913      18.51218885      -2.24261762       0.14392104       0.13696783      -0.06106051      -0.74683082      -0.70169795       0.03465583
H       11.67582827      17.52797404      -1.23417887       0.06026306      -0.33290593       0.00024134       0.07608484      -0.70564449      -0.17118736
C       -3.36493148       1.83263882      13.61490562       0.21163904       0.46405362      -0.71158798       0.41852009       0.96286452      -1.78887248
C       -1.90797763       1.94313360      14.01096999      -0.99308097      -0.11716422       0.59230603       0.07794348      -1.13144469       1.51376736
C       -4.27306900       1.55248757      14.74998632      -0.57603826      -0.03571851      -0.65197671       0.77582288      -1.08442688       2.04971004
H       -3.47593959       1.07523510      12.81121995       0.16787950       0.18875235      -0.01201503       0.13808107       0.32487446       0.52845842
H       -3.62515377       2.80539919      13.13583693       0.09751901      -0.02595829      -0.23375204      -0.18052036      -0.58651042       0.16429693
C       -0.94172922       2.04238416      12.86522831       0.20693986       0.10362664      -0.66836881       0.19197643      -1.19514251      -0.63356090
H       -1.68534635       0.99975450      14.56482540      -0.05577720      -0.10109665      -0.03128031       0.09425265       0.60432088      -0.23116955
H       -1.75371952       2.78318658      14.73947159      -0.07238618      -0.30041457       0.05342749      -0.11225044      -0.67707121      -0.67581546
O        0.35581876       1.55786713      13.17264861       0.06031602      -0.76918924       0.29945895       0.60589880      -0.22515458       0.67716080
H       -0.87377420       3.05894421      12.60294565       0.06435872      -0.07802830       0.27503881       0.16360646       1.21014166      -0.72686195
H       -1.21244992       1.44752702      11.95915985       0.19291911       0.04956924      -0.10373752      -0.32034636       0.47986567       0.75898397
H        0.64453933       1.89403140      14.04861000      -0.00958857       0.21778433      -0.08064185      -0.09749083       0.28905895      -0.35996687
H       -5.22845109       1.22457646      14.44010551       0.06203576      -0.13344767      -0.10249966      -1.06980515      -0.26761827      -0.34551382
H       -4.39437125       2.40106811      15.39494285      -0.11756855       0.13466527      -0.10656279      -0.16257639       0.66355056       0.18113531
H       -3.86841512       0.76957561      15.46406606      -0.31453925       0.14896869      -0.00255426      -0.32396758       0.56155825      -1.03962600
C       24.90657526       0.05952333      21.62812613      -0.02911064      -0.64410700       0.21005709      -1.53811944       1.62683463      -0.68319952
C       24.07487766       0.79408942      22.72134285       0.10456754      -0.41820896       0.04019400       0.85227859      -0.33760524       0.39277390
C       24.19276679      -1.18866023      21.08357748       0.24134614      -0.23173486      -0.81101396       0.54640651       1.14701939      -0.09766337
H       25.89373775       0.02949079      21.97422606      -0.10901515      -0.04548121      -0.14214651       1.47932744      -1.18716860       0.55538023
H       25.03650328       0.76369379      20.78442975      -0.06512068      -0.22799254      -0.07813253      -0.29012284      -0.11075768       0.36680341
C       24.89139402       1.76102362      23.63986964      -1.02386891       0.03109660       0.74410450      -2.43649411       0.52075160      -1.50591803
H       23.70801885       0.11348978      23.49532446      -0.16837812      -0.00560521      -0.09888434      -0.67130125      -0.37836173      -0.63891363
H       23.28026522       1.29785231      22.16676221       0.20194145       0.26979512       0.12974429      -0.19741757       0.09723036       0.65969622
O       25.81338371       2.44648396      22.85413254      -0.08626015       1.24307621      -0.14862777       0.83934587       0.42647618       0.06901935
H       25.36350451       1.22189902      24.46550640      -0.01176282      -0.12847256      -0.18246774      -0.20759112       0.19717960      -0.02196582
H       24.14007240       2.54913947      23.94986600       0.02321252       0.01073232       0.09521411       0.67361414      -1.08611035       0.60568410
H       26.62854029       2.39508234      23.34778224      -0.11593250       0.04826684       0.07653999       1.05153596       0.48953664      -0.41427612
H       24.76793448      -1.65551942      20.25978400      -0.05497046      -0.02248237      -0.04259853      -0.87841606       0.44884020       0.26833990
H       23.14541747      -0.88669289      20.85353967       0.16832753      -0.25648170       0.23571179       0.83477318      -0.41440868      -0.33091843
H       24.14818813      -1.88150889      21.87686796      -0.01115470       0.20983555       0.30443822      -0.23112309      -1.13429642       0.85582781
C       19.80437842       5.58217715       1.22615912       0.13918511       0.55071552      -1.20463883      -0.05771554      -0.63597220       1.47855675
C       20.47109812       6.60453725       0.35041176      -0.62582443      -0.19985820      -0.03081720       0.21882403       0.27582249      -0.87433910
C       19.21709819       6.18625432       2.51686767      -0.01758039       0.62895114      -0.50974272       1.53206992       0.21057022       2.41355371
H       20.55670109       4.81212654       1.52068244      -0.36000199       0.02653703       0.18160226      -0.38461334       0.63218117      -0.10361277
H       19.07026790       4.98070396       0.68182064      -0.06089524      -0.30037430       0.02382702      -0.18738502       0.41848576       0.02540961
C       19.66113648       7.90386931       0.14939177       0.52852290       0.35694338       0.78244240       1.03753209       0.78152066       0.17573863
H       20.66455481       6.08650987      -0.59366935       0.00477517       0.21010590      -0.41011806      -0.18644230       0.48632449      -0.26748791
H       21.49002245       6.85435447       0.69036295       0.11099242       0.09673223       0.01391662      -0.54769349       0.13982815       0.31975758
O       20.49132337       8.95861364      -0.38021892       0.60102097       0.32695273      -0.09205891      -0.43196106       0.41224965       2.12251496
H       19.32211385       8.36606896       1.08398057       0.13855838       0.21104424      -0.15315235      -0.12206987      -0.73427683      -0.14920333
H       18.84200528       7.85386419      -0.55455875       0.31348484       0.16648324      -0.20004571      -0.48136365      -0.69913262       0.14336446
H       20.69863120       8.72079858      -1.24825471       0.07333998       0.13824590      -0.11898919       0.62474453      -0.51387012      -2.45912886
H       18.36446576       6.85810435       2.48657075       0.06886215       0.04843656      -0.31769704      -0.30804598      -0.32759070      -0.65376204
H       19.97567855       6.85952289       3.07091884      -0.04232025      -0.11455701       0.08532547      -0.72296333      -1.07066572      -1.23707330
H       19.02516685       5.43438861       3.32877213       0.12188187      -0.17477368      -0.10790034      -0.05600759       0.45878476      -1.26695275
C       -1.31727639       5.48463072      13.17326462      -0.04470166      -0.13431286       0.16759114       0.05773612      -0.85014582       0.46447462
C       -1.64481854       6.76482541      13.89631546       0.90769043       0.33541398      -0.41457448      -1.47986031       0.45173872      -1.28236914
C       -1.06472049       5.71897181      11.67003220       0.06044918      -0.29374454      -0.23244115      -0.68210030       1.24372649       0.13569207
H       -2.10324247       4.66681703      13.34292954       0.19846069       0.00998053       0.13093783       1.16372859       1.32414055      -0.22962594
H       -0.38707283       5.19138268      13.66312560      -0.03857258       0.05875659       0.08216646       0.11333929      -0.83639979      -0.30429065
C       -1.75032207       6.75765509      15.37584343      -0.79193029       0.18249619       0.46980305       1.87791538       0.61638182       1.04988909
H       -2.59020702       7.05426020      13.46405757       0.02556201       0.13695970      -0.05904614      -0.56256914       0.65570486       0.04073834
H       -0.92810540       7.47613846      13.57171795       0.05202057       0.00589462      -0.09002291       0.72691882       0.94349283      -0.14748764
O       -2.63358538       5.74493268      15.77481655      -0.67833081       0.67984477      -0.20872676      -0.36597818      -0.12426835       0.93907797
H       -1.96242825       7.78072774      15.86057403      -0.10151418      -0.01001906       0.10480663      -0.13705102      -1.32396209      -0.95126450
H       -0.73794083       6.49436052      15.77365683      -0.18532906       0.00786990       0.08623047      -0.72055864       0.00805427      -0.13051337
H       -3.53647514       6.11375081      15.63883839       0.05694679       0.16403096       0.01278305      -0.20765953      -0.16641280      -0.12299210
H       -0.27117722       6.49164789      11.45549734      -0.06371006       0.17579197       0.16889560      -0.68632865      -0.96599329       0.38432786
H       -1.97142171       6.08708710      11.12868046       0.07701167      -0.18641669      -0.00575709       0.52378821      -0.29026920       0.66209775
H       -0.81798094       4.77099578      11.24186816      -0.13671750       0.30413766       0.12463046       0.41562542      -0.42091173      -0.58461154
C        2.37055552      12.03833524      -5.68322037       0.10432896       0.34167018      -0.96742569      -0.21295127       0.49253368      -0.09727058
C        3.77939056      11.64487256      -5.25184222      -0.96149818      -0.75795401      -0.84185312       0.24286416       0.68770528       0.26136112
C        1.57286462      10.82562385      -6.17567603      -0.82144194       0.68363250      -0.21132453      -0.61499250       0.92171645       0.63739800
H        2.44974396      12.70821461      -6.52424993      -0.05749261      -0.31051245      -0.06279605       0.30746180       0.18217482      -0.66730964
H        1.81234123      12.70956282      -5.00862191       0.11106787       0.05889322      -0.00509789       0.23137632      -0.77813154       0.44175833
C        4.81674471      12.83663891      -5.09198391      -0.00737187      -0.23591698       0.31340558      -0.30351552      -3.55425906      -1.36492109
H        4.04516899      10.86972375      -5.96363701      -0.19476986      -0.09055514      -0.08914125       0.79212105       0.16909669      -0.27770805
H        3.79495588      11.11944963      -4.29061376      -0.06276589       0.03711812       0.03039614      -0.21396041       0.18676108      -0.03428648
O        6.06336460      12.28655349      -4.64704085       0.36286790      -1.80533019      -0.86503878       0.89410841      -0.14789745      -0.49472508
H        4.40425454      13.42180181      -4.35334116      -0.18289934      -0.14847666      -0.07859797      -0.74476063       1.83344102       1.60472417
H        4.99030122      13.40911252      -6.02505639       0.00402232      -0.12048520      -0.12336268      -0.06866851      -0.46520588       0.61807287
H        6.07366863      11.82472938      -3.76114611       0.21689758       0.07042343      -0.06073120      -0.85113323       1.15210319      -0.49327627
H        0.55764450      11.11528064      -6.43464776       0.10500171       0.15729067       0.33028729      -0.14350620      -0.00203243       0.09897096
H        1.51808964      10.01278049      -5.47474872       0.05504488       0.12372322      -0.05138717       0.12252790      -0.10196973       0.36600691
H        1.99629639      10.43617940      -7.06182827      -0.02299173      -0.00794163      -0.09655828       0.65977925      -0.38678440      -0.99845469
C        5.07982050      13.08966520       0.68352966      -1.14309531       0.03530085       0.70105046       0.99690294      -1.90713882      -0.14058447
C        5.23635810      13.92435986      -0.60154527       0.15065581       0.88289545       0.31846789       0.46182838      -0.71575493      -0.25869688
C        6.51060315      12.66167008       1.21122627       0.14045816       0.25544937      -0.33860949      -1.33122134       1.26877940      -0.62956464
H        4.50465392      12.15378214       0.52521044      -0.17996978      -0.00125647       0.00275399       0.50272655       0.27234375      -0.57616985
H        4.45211407      13.47897363       1.46253394       0.14727104       0.11119272      -0.19661681       0.09287937       1.15414858       0.32078159
C        6.20588857      13.23996616      -1.64168953      -0.12377484      -0.27904970      -0.03765021      -0.96418673       1.07778299       0.10893507
H        5.77542646      14.84501709      -0.33833520       0.18551168       0.00482408       0.15750830      -0.61895090       0.05240982      -0.22832531
H        4.26089563      14.11542064      -1.07220982      -0.08259000       0.14569680      -0.00609387       0.52477872       0.18828019       0.19735676
O        5.84267507      11.95292844      -2.05765382       0.42578595       0.35034193       1.03087900      -0.64966273      -2.09082317       1.43205285
H        7.18392286      13.21723436      -1.16647298       0.16789127      -0.16052590       0.07001736       0.28463322       0.22498389      -0.47970849
H        6.19377657      13.78650084      -2.60566151       0.19365749       0.07412947      -0.18339357       0.37163880       0.28683889       1.02775037
H        5.71660425      11.32825632      -1.27797654       0.07137380      -0.05977226       0.02884920       0.11684025       0.69601154      -1.20694304
H        6.99600702      12.12372957       0.42877607       0.00936464      -0.15043219      -0.08942972       0.35196289      -0.64822388      -0.32160947
H        6.48131378      12.03497068       2.07716864      -0.05638612       0.29642589      -0.09279997      -0.06742342      -0.12945640       0.59090632
H        7.12844785      13.55173812       1.36068007       0.14859074       0.20981358      -0.12068158      -0.16506174      -0.12273264       0.32477003
C       -1.12675503      24.19371119      20.36609815      -0.16849785      -0.24211866       0.75562327       0.35898450      -0.39073712       0.04912329
C       -1.38482671      24.50563726      18.86216907       0.70553408       0.19703905      -1.12845237       0.95489120      -0.47328433       1.59996557
C       -2.28318821      23.40192836      20.90642941      -0.42456750       0.06505300      -0.36816559      -0.68754345       0.68325591       0.40253764
H       -1.08722080      25.13903708      20.92676579      -0.06347440      -0.21053642       0.20571489       0.33483616      -0.24740212      -0.36239144
H       -0.21118062      23.58773756      20.59412598      -0.06980137       0.17845233      -0.00075366      -0.40964907       0.87121081      -0.56712359
C       -0.28977177      25.39185459      18.34394074       1.10675776      -0.62306544       1.32963692       0.67146188      -0.63744146       0.23963396
H       -2.30244951      25.05573391      18.87968752       0.07950583      -0.08635588       0.15545513      -0.66120052       0.34306061      -0.33354849
H       -1.51629145      23.58779862      18.28551431      -0.00320958      -0.01372273      -0.11257549       0.11583459       0.12641472      -0.04275800
O       -0.55175480      25.85208565      17.04185650      -0.21126886      -0.72901388       0.63685613      -1.15462565       0.43357760      -0.57302910
H        0.67124924      24.83476529      18.33329364       0.06124069       0.05665423       0.28439613      -0.54544282       0.30986536      -0.16747884
H       -0.13918750      26.22896697      19.02062841      -0.39184433       0.02007559      -0.16730873      -0.08843676       0.21683809       0.13023001
H       -1.52124972      26.06042024      16.97005380      -0.03594293       0.07516479      -0.10708320       1.37295294      -0.28639036      -0.21425517
H       -3.20600263      23.83694250      20.55451379      -0.06056031      -0.11714323      -0.16102067      -0.45815563      -0.23948732      -0.51519620
H       -2.41703863      23.45811411      21.96355784       0.06494914      -0.03808855      -0.08295198       0.42967454       0.12856270       0.99350274
H       -2.20736922      22.36798372      20.69533601       0.20060542       0.00152400      -0.18524370      -0.17653976      -1.01757812      -0.63706154
C       18.33339193      18.68280089      11.11649251      -0.19249197      -0.36733275      -0.99175300      -0.66728008      -0.40630549       0.24727556
C       18.02300136      19.87958960      12.03964366      -0.44031535      -0.25682846       0.05243752       2.34895563      -1.60942113       1.70528555
C       17.11173180      18.21145401      10.34461791       0.55593468       0.78915149       0.19951896      -1.95027971       1.10540986      -0.26915100
H       18.72788711      17.81302432      11.66640686       0.08834667      -0.13659381      -0.18467463      -0.04260239       0.55061096       0.00814307
H       19.07568692      18.99285690      10.40368297      -0.04662940       0.27332821       0.19131784       0.53413624       0.05182560      -0.21038985
C       16.96236615      19.62119025      13.05241065       0.32398608       0.83545517       0.60771531      -2.04291534      -1.31360805       0.20446949
H       17.79515692      20.72763315      11.46728101      -0.01132431      -0.04062247       0.46139837      -0.22062351       1.17472553      -0.69280201
H       18.97591855      20.08667841      12.68699026       0.27775125       0.04390938      -0.09218897      -1.43183970      -0.03916541      -1.34248853
O       17.24298353      18.55395391      13.94511480      -0.57552886      -0.54321624      -0.32653912       0.95309889      -0.67547524       0.22189711
H       15.95995931      19.30369498      12.69101537       0.02637319       0.29420286       0.11009918       0.69024324       0.32412720      -0.70556343
H       16.68087742      20.47008951      13.61987477       0.08808017      -0.20090704      -0.06466720       0.34806350       1.28059196       0.60818052
H       18.20244837      18.42752073      14.11256482      -0.03678036      -0.04757089       0.03013928      -0.35832053       0.45530447       0.01036298
H       16.80805664      18.90694362       9.50934326       0.23943033       0.17403721       0.09343096       0.15309042      -0.20806855       1.12609220
H       16.21302899      17.99814583      10.98552900       0.06163712       0.11202708       0.08733397       0.85102022       0.61918002      -0.41798675
H       17.19430171      17.30517417       9.81418034       0.04009602       0.20069326      -0.22887401       0.87975758      -1.32002544      -0.47904304
C       10.79866027       9.99173482      -5.43908462       1.27112710      -0.17253447      -0.67032774       0.82448804      -0.29198760       1.06412804
C       10.41148136       8.50232402      -5.34101792       0.22422279      -0.24259677       0.04897548      -0.58527696       0.48444605      -2.87066340
C       11.28664610      10.40951001      -6.83132365       0.93549795       0.89180178       0.64890666       1.36299419      -1.38646007       1.44073856
H       11.59126551      10.18406071      -4.68390349      -0.13883889       0.28032096       0.01142987      -0.63085294       0.15447044      -0.35086057
H        9.94845252      10.61484950      -5.21641373       0.10526653      -0.01373087      -0.13239577      -0.29156607       0.02939241       0.37210652
C        9.84304353       7.96727977      -4.06705452       0.36543321       0.76607063       1.50076777      -0.13648281      -1.14253080       0.12719502
H       11.28319791       7.93311883      -5.66727457      -0.09984011       0.09100113       0.01895139       0.06037239      -0.27632490       0.37924463
H        9.69379213       8.31649697      -6.19159666      -0.38271368      -0.09583563       0.00685655       0.35217953       0.18906428       0.76876348
O        9.09347549       8.87326074      -3.30987231      -0.22863493      -0.43405644      -1.69212699       0.39144316       0.27199900       0.83775437
H       10.64835587       7.63929479      -3.46042369       0.07293601      -0.20837421       0.02154556       0.95924151       0.18314746       0.81149018
H        9.32735859       6.98779009      -4.17546699      -0.07087500       0.13589299       0.07229076      -0.25911066       0.67386985      -0.51801753
H        8.24765497       9.04690165      -3.71083857      -0.11355232      -0.16479716      -0.14143204      -0.56460440       0.05748953      -0.65725565
H       10.53692455       9.98541738      -7.45654946       0.25732472       0.26365503      -0.10517333      -0.56543827       0.56366569      -1.27532399
H       12.22375913       9.82713038      -7.06340960       0.23900326      -0.07339983       0.07910575      -0.70188260       0.91946089       0.12005627
H       11.45118164      11.49717937      -6.81724969      -0.17978126      -0.01829386       0.13584647      -0.16284737      -0.54429078      -0.67225683
C       14.69241642      -0.04365198      19.94036034       0.92647336      -0.72032322      -0.86946506      -0.06178505      -1.71967459      -1.44600165
C       15.71215247      -0.06432977      18.77343205       0.48365751       0.39773470       0.81306468       0.97474158       0.69635350       1.61233854
C       13.52645658       0.73807702      19.35662537       0.09385037       0.15256481      -0.72450981       1.05426788       2.46354294      -0.24204376
H       15.13242308       0.36173160      20.86843531       0.00494642       0.08246654      -0.19929151      -0.42398036      -0.00945172      -0.50611925
H       14.44460486      -1.14228561      20.12135087       0.08832292      -0.05172985      -0.13627924       0.04270440       1.39652205       0.04185327
C       16.73752720      -1.14830875      18.99899480      -0.79774460       0.44820821      -0.03630942      -0.39938676      -0.74243116      -1.00197172
H       16.25063501       0.89736580      18.66424954      -0.07708947      -0.02808329       0.07829304      -0.32550210      -0.25589490       0.26625738
H       15.21586161      -0.17702022      17.81876569       0.32140483      -0.13008584      -0.04860185      -0.18225457      -0.52490616      -0.08331165
O       17.42457954      -1.38307214      17.79593021      -0.79835674      -0.83226804       0.26110016       1.73816657      -0.13585123      -0.77713662
H       16.24406571      -2.08264469      19.27843651      -0.19819162      -0.07544025       0.19001577      -0.18140483       0.12477655       0.16400233
H       17.50849633      -0.96638676      19.75666940       0.21547291       0.07702670      -0.03292901      -0.38410336       0.37187999      -0.09278876
H       16.86597863      -1.54510631      17.01785748       0.19123367       0.02846373       0.18253795      -0.51080441      -0.06237175       0.54928488
H       13.13855609       0.41848399      18.36002264      -0.09052962      -0.21887077       0.22774339       0.55328047      -0.09387577       0.95992243
H       14.01382463       1.78434707      19.21421369      -0.07470613      -0.36377882      -0.01301832      -1.16806626      -1.40363765      -0.12680918
H       12.71191471       0.91214353      20.01735434      -0.19101713       0.06838761       0.11601643      -0.77153480      -0.08746522       0.55814433
C       20.95927863      18.40773210      20.64769249      -0.58036180       0.01763575      -0.41061768       2.00321889       0.60035294      -2.76404428
C       20.31507977      19.30383782      19.56204549      -0.15093142       0.12171261       0.45645911      -0.46133339      -0.33292753       0.38417369
C       20.43372914      18.61345422      21.96997431      -0.23322502       0.41508988       0.17427190      -3.79074860       0.33643925       2.45775986
H       22.04355491      18.65930469      20.71560036      -0.08440261      -0.35002786       0.06098438      -0.62006396      -0.22872865      -0.45835653
H       20.91731092      17.40131488      20.22042952      -0.06824236       0.32666935       0.13109071      -0.14050771      -0.16744144       0.58958006
C       20.84801462      18.97755728      18.17898106       0.09949145      -0.02176898       0.45150914       0.69410545       0.70350862       1.23309624
H       20.41679427      20.37835797      19.77338716       0.22651999       0.33753992       0.04212502       0.12590869      -0.29995245      -0.00353124
H       19.22935961      19.09362054      19.50599344      -0.06675342       0.09450298      -0.06373196       0.37261054       0.06691728       0.31799406
O       20.22199716      19.74800216      17.21136714      -0.19639198      -0.37086479      -0.22922725      -0.36851788       0.10079566      -1.05371428