896
Lattice="22.746165311719153 0.0 0.0 0.0 22.746165311719153 0.0 0.0 0.0 22.746165311719153" Properties=species:S:1:pos:R:3:momenta:R:3:forces:R:3 mol_liquid.pdb=T energy=-1301754.5 free_energy=-1301754.5 stress="0.0009841702412813902 -0.0009332752088084817 0.00025942898355424404 -0.0009332752088084817 0.001359885442070663 -0.0006673254538327456 0.00025942898355424404 -0.0006673254538327456 -0.00011943875142605975" pbc="T T T"
C       13.90638144       4.27826696       8.86571173       0.18649446       0.30605021       0.84091626      -1.92141116       0.64927244       0.26625246
C       12.69412493       4.73460402       9.49112370       0.79449234      -0.38418801       0.60671984       1.22775555       0.06289668      -2.16123915
C       14.25499084       4.66785605       7.58878202      -0.00569934       0.16114979       0.43946091      -0.31522554       0.45535803      -0.57902515
H       14.46696066       3.55341305       9.38290257       0.09747103      -0.02264390       0.01470477       0.73027241      -0.74632049       0.45406067
C       11.92438908       5.64601991       8.76950328      -0.32844072      -0.31077779      -0.45159071       0.09467786      -1.17122018       1.75024629
H       12.31974814       4.28438973      10.39244800      -0.01078605       0.16215213      -0.12379246       0.23091847       0.18632369       0.25741693
C       12.30573732       6.08853085       7.52282237      -0.23301703      -0.30483032      -0.31636974      -0.07474184       0.04614696      -1.07100654
H       10.99990868       5.88282954       9.27388469       0.04137394       0.02887058      -0.05895580      -0.21235538       0.55749702      -0.56657904
C       13.43266838       5.61942000       6.87129185       0.08142678      -0.47974019       0.74624994       2.19755125      -1.12991250      -0.72099721
Cl      11.20222926       7.05462562       6.57545200      -0.12270425       1.35384533      -0.23658215      -0.11439744       0.32673439       0.13074325
N       13.89163374       6.01713490       5.55463539      -0.51692118       1.62211998       0.23903832      -0.89480484      -0.92075241       0.37834930
H       13.14150525       6.15715309       4.84143826      -0.24372803       0.13527911      -0.07491924       0.92085719       0.02897371       0.89677131
H       14.60932390       5.35702828       5.18777247      -0.00487387      -0.16469464       0.10965590      -1.05109954       0.83611953       0.55172533
H       15.12756723       4.17978320       7.08511562      -0.13162949      -0.12372799      -0.07337288      -0.98488694       0.80509585       0.50688827
C       -3.84702408       4.13763484      13.34102852      -0.17388459       0.25100250       0.35778038       0.55485982       0.53823119      -0.94848108
C       -2.79646666       5.06644488      13.18768449      -0.17056824      -0.40877122      -0.38173643      -2.66265583       3.26563549       1.12853825
C       -3.70169574       2.90393476      12.74062527       0.30275504       0.08011513       0.39224582       0.28287899       1.01224291       0.86592329
H       -4.82443253       4.44616040      13.68981346      -0.06159730      -0.25214504       0.31243813       0.39627692      -0.11415739       0.56162071
C       -1.68785281       4.82416176      12.44793362      -0.54572142      -0.30533087      -1.20599515       1.19493914      -0.56441796       0.45077133
H       -2.98748710       6.16319491      13.53160771       0.07511777       0.00189521       0.27882412       0.46755755      -2.25471473      -0.41249746
C       -1.55309058       3.55875117      11.92055693       0.41573850       0.35860996      -0.07306728       0.79104823       0.84128469      -0.02663695
H       -0.84979129       5.51176753      12.40290712       0.12796338      -0.04877566      -0.17507410      -0.41694909      -0.01421259      -0.21384025
C       -2.56594828       2.63815354      12.02104705       0.16105470       0.24947097      -0.01254909       0.62330139      -1.82189417      -1.97128773
Cl      -0.01659568       3.19482233      11.16843260       0.68975150      -0.22551179      -2.34680090      -0.37187725      -0.19052193      -0.28501314
N       -2.50165096       1.48935339      11.20922483      -0.55462505       0.47553542       0.84284326      -2.60212588       0.96887678       1.35384703
H       -1.63124533       1.22176450      10.92496769       0.00306534       0.06926896      -0.25738943       2.52284217      -0.87516415      -0.80504364
H       -3.08868490       0.72929139      11.50030960      -0.18231850       0.01644662       0.09143854       0.16277428      -0.27548516       0.00383313
H       -4.40331459       2.13523215      12.87677219       0.20219794       0.00544560       0.10953182      -0.92151058      -0.74300420      -0.05440901
C       14.42895787       2.47410623      18.61632516       0.62046992      -0.98600660      -0.20042977       0.35520887       0.51047421      -0.95762789
C       13.08946624       2.75524952      18.58880137      -0.29629451      -0.08695182       0.58186531       0.05921641      -0.12597026       0.79104352
C       14.94077725       1.27596954      19.07249490       0.85233813       0.15493844       1.37149058       0.31627947       0.93104857      -0.20749950
H       15.07026704       3.19113185      18.16448504      -0.05601508       0.09745414       0.06077102       0.76376164       0.29656377      -0.25368041
C       12.28025070       1.80511821      19.18333546      -0.73988737      -0.06268106       0.30879165      -2.24119902       0.71568465      -1.03934503
H       12.62866184       3.65535311      18.16116385      -0.19713751       0.06616212       0.22364639       0.45041677      -0.50929809       0.33203223
C       12.74978033       0.59155878      19.65614684       0.52589223       0.19796755      -0.27358531       1.09597647       1.13399839      -0.43128628
H       11.22063802       2.13256974      19.03829956       0.09346905       0.16099241      -0.23989934       0.62752134      -1.26277709       0.77719325
C       14.14477257       0.33486337      19.64030045      -0.31351692       0.60460957       1.05162243      -1.83664179      -1.28124166       0.89237249
Cl      11.69122375      -0.64311205      20.14889104      -1.05736860      -1.27113735       0.98794296      -0.78714776      -0.61691242       0.37730163
N       14.66264955      -0.83957573      20.21886508       0.25005777       0.31578065      -0.71603891      -0.30116779      -0.10134888      -0.68257868
H       13.99757253      -1.61644944      20.24690318       0.07673278      -0.10372393      -0.10038337       0.21537560       0.50305778       0.09975437
H       15.45498149      -1.13712479      19.67176210       0.02749779      -0.01492048      -0.12908496       0.44825751      -0.14444408       0.16472995
H       15.96768601       1.05923717      18.94118962       0.27763393      -0.08183852      -0.27219763       0.89892244      -0.04679392       0.10283562
C       21.17486819      22.86391884       7.09991898       0.06655841      -0.01743453      -0.72209398      -0.29861689       0.80512995      -0.29644492
C       22.48606177      22.55540915       7.37187630      -0.85073848      -0.01469040       0.36645756       1.93901992       0.18030593      -1.38261390
C       20.18017485      22.51744211       7.97219421       0.23081364      -0.36875725      -0.26948285      -0.72778583      -0.98212582       1.35018027
H       20.90801227      23.45568047       6.23438570      -0.04676004      -0.00601812      -0.12599058       0.24254869       0.22414535       0.09319739
C       22.82937004      21.68548278       8.41472623       0.37748996       0.04183131      -0.38023213      -0.51152104       0.22125523      -0.35380587
H       23.25432029      23.01715089       6.67790353       0.00947801       0.06002210       0.03970516      -0.81002951      -0.90121782       1.10708511
C       21.77688835      21.14566983       9.14176510       0.73656571       0.23652435       0.04676957      -0.06713030       0.71704924       0.61039186
H       23.85760000      21.40882587       8.67253839      -0.07465580      -0.16981124      -0.00862382      -0.56340826       0.23992035      -0.29552925
C       20.43185262      21.60819480       9.00199413       0.20316960      -0.01746415       0.38949511       1.28477716      -0.17159140       0.18575603
Cl      22.23720644      20.17179429      10.53977621      -0.14305418      -0.00399476       0.74012904      -0.40988380      -0.06430665      -0.39590597
N       19.48810066      21.26739468       9.95429476      -0.34634541       0.71862751       0.30526396       0.42263156       1.17458439      -0.64682817
H       19.65690448      20.38307271      10.32194031      -0.03430375       0.04064133       0.14355436       0.19400550      -1.59393215       1.09100604
H       18.53637512      21.34535448       9.68303349       0.22662254       0.16793373      -0.05405381      -0.62250370       0.20484850      -0.35532433
H       19.18815997      22.93905974       8.03249567      -0.05373909      -0.02376786       0.04307153      -0.15593696       0.07418019      -0.78267938
C        3.89433269      21.49057945      -3.20430707       0.60894951       0.82915087       0.23462655       0.98607486       0.71500975       1.47655964
C        3.86443892      21.89546149      -1.82959294      -0.12407101      -0.17230213      -0.75186186      -3.04775357      -1.96444881      -1.04413033
C        2.86178802      20.80377069      -3.79597035       0.67409216      -0.08081031       1.17715627      -0.70644844       0.46356311       0.12009093
H        4.80921246      21.71817819      -3.72633894       0.13289357      -0.12048879      -0.17028111      -0.02029049      -0.15506184      -0.41300926
C        2.66632202      21.55420781      -1.14171533      -0.08367849      -0.38911965      -0.46107708       1.47055316       0.32228667      -0.57179809
H        4.68726517      22.29347359      -1.29474709       0.12088772      -0.29154376      -0.13463970       0.58382976       0.39936718       0.09953272
C        1.57178538      20.95424456      -1.79815706      -0.13003711      -0.93310866       0.12561560       1.34539199       1.26872373       2.27004004
H        2.64270212      21.67048496      -0.06053326      -0.19902480      -0.10173566       0.34414492      -0.26436979       0.24541011      -0.32181194
C        1.66572815      20.56937310      -3.09164848      -0.25974447      -0.44564324      -1.07575499      -0.80435276      -1.44671810      -1.42936397
Cl       0.19502946      20.69930129      -0.77083755       0.55170254       1.31604310      -1.02604353      -0.26344389      -0.14998983      -0.49181679
N        0.67361574      19.74724401      -3.67055278      -0.31022252      -0.21454231       0.59734647      -0.07319977       0.10330346      -0.98254615
H       -0.30302171      19.98202799      -3.54118161       0.17372466      -0.01715334       0.03010834       0.19266394       0.37703848       0.62726617
H        0.75784438      19.67440653      -4.68568781       0.02527062       0.07487824       0.18440131       0.33734155      -0.07000183       0.49408382
H        2.83138800      20.53302668      -4.84628251      -0.04362475      -0.16137255       0.12537901       0.47688001      -0.08042537       0.13090189
C        7.96203968      14.71953749      12.83876252      -0.08110015       0.44079596      -0.67774662      -1.02191079       0.51876217       2.38839865
C        6.70195001      14.55855185      12.30936577       0.56454453      -0.33577081       0.29424326      -1.36973929      -0.24239403       0.15861540
C        9.03035392      15.03003029      12.06966191       0.22474737      -0.28230190       0.52070339       0.84145772      -0.54844356      -1.27288818
H        7.95613392      14.77589267      13.93922897       0.14343476      -0.10641096      -0.17127881       0.72838050      -0.25083336      -0.59983969
C        6.58949888      14.68544684      10.94506127      -0.25562015       0.32933152       0.72264828      -2.09628153      -0.01250355       0.57961589
H        5.82056734      14.36431486      12.96921725       0.27618643       0.04808965       0.04941308       1.16545987       0.19441736      -1.00117123
C        7.66938528      14.82185588      10.15439442      -0.82007540       0.07463387       0.19293407       0.86328173      -0.41589299      -0.90262640
H        5.65897499      14.78068999      10.42213503       0.11571540       0.28108520      -0.16839979      -0.64828640      -0.54514414       0.14244522
C        8.91922149      14.96407755      10.65847649      -0.08528934      -0.52306618       0.70314778       2.35492182       0.77535677       1.88841653
Cl       7.50762181      14.57967225       8.47743966       1.12201199      -0.48806159      -0.66998968      -0.25496137       0.20705912      -1.37162757
N       10.07245484      15.07102401       9.85491266       0.05645136       1.17992483       0.52347842      -0.62942088       0.19906145      -0.02699042
H        9.81872086      15.61261175       9.05619314      -0.23313690       0.22589031      -0.05571570       0.04516830       0.04995631      -0.98020458
H       10.84295458      15.57860950      10.26179839      -0.12379147      -0.16318072      -0.29151201      -0.05875622      -0.17799205       0.64921886
H        9.99502582      15.19733734      12.50216167       0.34515121      -0.31123004      -0.07439682       0.30078572       0.08528221       0.16287135
C        7.57407656       6.30598132       1.63764046      -0.60789646      -0.02547986       0.77450678       0.78600925       0.98347157       0.10737886
C        8.28220084       7.36299952       2.19924446       0.30145392       0.18980272      -0.49745542      -1.43697667       0.67297542       0.26161882
C        6.21070817       6.22948968       1.79140238      -0.03533858      -0.59477140      -0.43631226      -1.92691779      -1.10755277       0.77844059
H        8.19522316       5.63270546       1.07345905       0.06791708       0.38008515      -0.17422411      -0.47501478      -0.57033837      -0.15164278
C        7.59267062       8.32876486       2.92640510       0.01930436       0.42742750      -0.87259236       0.50709498      -0.88620460       0.07504347
H        9.30411701       7.51834715       2.03666882      -0.19582211      -0.19115696      -0.06561236       1.20352840      -0.18116538      -0.20220822
C        6.23285806       8.19164779       3.08704774      -0.74878706       0.24656422       0.48840275      -0.40064782       0.74881405       0.81603086
H        8.12904215       9.10182289       3.47280743      -0.18943088       0.11655650      -0.25314023      -0.23023692       0.02290617      -0.40079421
C        5.44046052       7.14875365       2.58214638      -0.78855810      -0.30097270      -0.15355925       1.47891521      -0.02376112      -1.12372100
Cl       5.52060040       9.46988016       4.09336888       1.36855928      -0.03521511       0.72091260      -0.44537973      -0.28817880      -0.13202703
N        4.08022704       7.14549748       2.76307542       0.43199253      -0.05547778      -0.23948314       0.53416187       1.50267839       1.65127647
H        3.81092413       7.60506787       3.64775744       0.17656037       0.06094384      -0.30608684      -0.01916022      -0.49366966      -1.11944008
H        3.43296862       6.47739055       2.40792798      -0.08709923      -0.11008453      -0.21536727       0.09900185      -0.84239197      -0.28992146
H        5.66632156       5.31949453       1.48478244      -0.04735226       0.07790906       0.12774022       0.33761254       0.63506806      -0.19835019
C       10.40153281       4.34875733      12.58438464      -0.32974465      -0.33816124       1.05383836      -0.82823551       1.79552889      -0.11077539
C       11.19465360       4.60717520      13.75500744       0.12801129      -0.76066347      -0.65566522      -0.99777484       1.68452120      -3.89259815
C        9.69253307       3.16806238      12.47414619      -0.37069465      -0.11895151      -0.33685161       0.52047950      -0.90441251       1.21452260
H       10.16054183       5.21662889      11.85636368      -0.13527935       0.02119049       0.01934524       0.69663852      -1.71082056       1.26921034
C       11.30783531       3.69385098      14.70271200      -0.10659156       0.42819184      -1.08432848       0.41152397      -0.68988764       1.16076910
H       11.68693603       5.55188835      13.78593101       0.01581030      -0.01638415       0.16413369       0.21837558       0.50160170       0.25142446
C       10.74260076       2.46654645      14.50073618       0.47936263       0.02314977      -1.11266123      -0.67464274      -1.23005319       1.00475609
H       11.79052429       3.94462519      15.61896358       0.10825388       0.11198703      -0.01580803       0.40120816      -0.27506423       0.42685705
C        9.91101818       2.13575900      13.43616217       0.77490091       0.71499417      -0.34047915       1.41761518       1.71516919      -0.11874203
Cl      10.90734140       1.32480821      15.81922606      -0.44578917       0.71484673      -0.46718681       0.07981518      -0.25169227      -0.15672180
N        9.37144512       0.90013319      13.36797600       0.37840023      -0.47089481      -0.43612083      -2.24058843      -0.85875207      -2.95937252
H        9.85241897       0.18860964      13.84859289       0.11564667       0.27286336       0.02216159       0.50004637      -0.77781045       0.53123945
H        8.98448988       0.57777115      12.41951884      -0.04720970       0.15104691      -0.09212691       0.81128728       0.68731070       2.08673835
H        8.92354321       2.91470874      11.77904312      -0.09182151      -0.10485696       0.06267560      -0.08530479       0.35464525      -0.93121684
C        1.95365311      13.20783510       9.54807897      -0.84066837       0.43071723       0.55294787      -0.57528508      -0.30829421       1.98091912
C        3.26559432      12.76969671       9.48153462       1.28205697      -0.52884545      -0.01707619       0.23722002       0.22718282      -0.56751204
C        1.17173037      13.43916965       8.45148834      -0.23853112       0.58741599       0.49148353      -1.46557570       1.07308614      -0.48131114
H        1.46951755      13.33522260      10.53029210      -0.04864759      -0.02516396       0.10299634       0.33419085      -0.28705564      -0.55717075
C        3.80669924      12.74973178       8.18932149       0.36736160       0.78561136       0.27457392      -0.67237473      -0.33039010       1.46022260
H        3.79431655      12.39977779      10.37701088       0.02687405      -0.01729849       0.09114013      -0.20445392       0.57175255      -0.77876675
C        3.03272611      13.05421264       7.10056835      -0.07697613       0.16860338       0.37615402      -0.13990310      -0.06858513      -1.03492379
H        4.80455454      12.46005215       8.03598397       0.21557330      -0.09151957       0.10761857       1.07662630      -0.37129933      -0.21283376
C        1.69275192      13.42439106       7.15154116       0.65398324      -0.59925611      -0.24031715       0.23596510      -0.31312516       1.17432284
Cl       3.75391426      12.86265524       5.52904030       1.58780924      -1.19163118       1.12682322       0.18147507       0.07927909      -0.35918242
N        0.90443842      13.82216365       6.09791688       0.64087738       0.79768633       0.48650131       0.79446918      -0.69736910      -1.67122960
H        1.09963196      13.40793274       5.15214864      -0.07917427      -0.00867902       0.11888353      -0.13013829       0.52761030       1.46727276
H       -0.05164294      13.70789257       6.34720275       0.03975102      -0.04232667      -0.19722603      -0.80132532       0.07563181      -0.22553518
H        0.09089502      13.71616681       8.59228113       0.35970409      -0.07326907       0.09687946       1.27882981      -0.30749273      -0.15562189
C       16.22469786      -1.60705419      28.62283946      -1.07745297      -0.99490581       0.25370842      -0.39416367       1.56734920      -1.97958994
C       17.46262399      -1.96930057      29.08532109       0.09526958      -0.30038493       0.49649641       2.58066583      -0.91525894       1.50760388
C       15.07543712      -2.34422283      28.80919893      -0.13974739      -1.20505268       0.45317808      -0.37014863       1.47882318      -0.48804879
H       16.11331914      -0.69874533      27.99087988       0.04710199       0.12285692      -0.03944114       0.18161613      -0.72807407       0.60522223
C       17.53588674      -3.05300779      29.99944589       0.00905670      -0.11539754       0.92644242      -1.61601686      -0.58936036      -0.42827618
H       18.46940018      -1.48335222      28.82597480       0.04366260      -0.00225521      -0.29145766      -1.99738455      -0.41039315       0.34805888
C       16.31729096      -3.78801704      30.23378473      -1.04117028       1.43280931       0.28561941       2.33857632       0.95838982      -0.34942180
H       18.45996816      -3.39317654      30.49956153      -0.00838541       0.08943292       0.14329417      -0.62383020       0.32701737      -0.51127404
C       15.12856451      -3.47291237      29.59154103       0.39639447       0.44260649       0.04989823      -0.42500705       0.35491118       1.25462902
Cl      16.35692286      -5.13122921      31.34004800       0.63500849      -1.51377093      -0.44569397       0.08539218      -0.06193990       0.04365620
N       13.93755408      -4.10046979      29.95122100       0.39770535       0.67894581      -0.78123225      -0.52294683      -0.27348760      -1.66040683
H       14.16585886      -4.89529629      30.50104135      -0.20657195      -0.03288680       0.14156115      -0.22604841      -0.91273010       0.38918802
H       13.49293893      -4.41123734      29.07139221      -0.23832993      -0.17897324      -0.14827224      -0.06066491       0.03186559       0.96656144
H       14.12284424      -1.89182124      28.42607967      -0.08462721       0.08510052       0.08536176       0.92877567      -0.93932855       0.47483909
C        3.28516193      14.41737179      13.70344756      -0.62851597      -0.49762096       0.14402587      -1.62659752      -1.09386349      -0.07976110
C        3.95235402      15.55683938      13.97265357       0.10465612      -0.12810616      -1.06495087      -0.40517193       2.11798525       0.95786923
C        1.92985008      14.22413719      13.99637273      -0.38391787      -0.64906780       0.24915679       0.35806656      -0.55782151       0.37256619
H        3.74540767      13.59499012      13.25510949      -0.20281142      -0.25635927      -0.07345955       0.96882653      -1.16387379      -0.50505340
C        3.19525606      16.60667608      14.52004038      -0.14780669       0.11419383       0.52866737       0.26437968       0.16251062      -0.80903250
H        5.00419481      15.72681370      13.84304839       0.02341028       0.04099742       0.19001059      -0.06224815      -0.08364659      -0.19130155
C        1.84139902      16.42478436      14.75918571       0.89821463       1.04394474      -0.73547054       0.97893369       1.00245166       0.52343619
H        3.66121847      17.60002092      14.59988217      -0.27775844      -0.03808475      -0.13496132      -0.40471104      -0.59698564       0.35377398
C        1.18067556      15.22210892      14.59250530      -0.80115979       0.46268235      -0.28879920      -0.07911485      -0.66032088      -0.04132051
Cl       0.98286440      17.74184926      15.49005833       0.85578021      -0.09249413      -0.38282363      -0.41598198       0.45747507       0.25016078
N       -0.08641305      14.98393986      15.07216677       0.33498692       1.35526697       0.69598132       0.25321954       2.19463062       0.79613149
H       -0.54996937      15.85281629      15.44144510      -0.26885687       0.09855292      -0.04173930       0.16075727      -1.93537879      -0.76894981
H       -0.57089656      14.19648899      14.69747448      -0.03386348       0.04158559       0.09367682      -0.49508330       0.12094608      -0.01184110
H        1.48419409      13.22497330      13.98426347      -0.12380631       0.09477575       0.03852814       0.29607984       0.29728526      -0.50710469
C       14.25171757       9.27391370       8.06610349      -1.35057001      -0.26574368      -0.38691641       0.40044034       1.11535549       0.58158195
C       15.30542290       8.40860153       7.89806464      -0.12171488      -0.21661629      -0.86966789      -0.31493974      -0.49911541      -0.48943937
C       14.26029755      10.14388615       9.18495683       1.24145842       1.20359861       0.43229861      -0.80624807       0.03373224      -0.77123976
H       13.53508631       9.30042829       7.24948460       0.07409753      -0.06242218       0.05351842      -0.19380128       0.34337053       0.50625491
C       16.25780878       8.24099821       8.86730509       0.43059533       0.26912193       0.37960897       0.69657803       1.65311790       1.39516687
H       15.40766445       7.88836693       6.96471276       0.26001064      -0.06891449       0.31481416      -0.17137210      -0.42980492      -0.07932473
C       16.32038404       9.10532369       9.96503212      -1.40018585       0.01035561       1.18254157      -1.65925062       0.33154237      -0.64348781
H       17.07656372       7.59982877       8.74325733       0.14969460      -0.22991338       0.06904685       0.79650080      -1.02208042      -0.28612873
C       15.28486412      10.08674409      10.13091551      -1.26110270      -0.25345369       0.87836615       0.50443411      -0.82337737       0.18973982
Cl      17.58696100       8.99286592      11.16819753       0.63052937       0.97240733      -2.03914036      -0.24576241      -0.11406606      -0.29950896
N       15.34349121      10.90879774      11.23443440      -0.29421126       0.72638242      -0.16428309      -0.60922027       1.04284167       0.14732495
H       15.89296499      10.54721882      11.97518232      -0.14870144       0.19035737       0.14844205       0.39275619      -0.18682331       0.56348503
H       14.56222529      11.47819105      11.57997815      -0.32473592       0.15418922      -0.20716149       0.38180342      -0.80143547      -0.92617053
H       13.48157524      10.92931047       9.30299766      -0.06473981       0.28753981      -0.18075258       0.59505039      -1.00507092      -0.01077484
C        5.82407786       5.80867528      12.73793238       0.40301485       0.45517613      -0.04357079      -0.91317618      -0.64575106       3.11080837
C        5.55373806       7.14060774      12.91310344       0.39189477       0.70754011      -0.55350231      -1.48760939       0.94925737      -0.25122583
C        6.67955134       5.34390387      11.83192056       0.48140595      -1.41197738      -1.39917802       2.14475179       0.19417986      -2.58319402
H        5.54540460       5.14971697      13.57011383      -0.19929832       0.04590501       0.10207196      -0.44623628      -0.02174692      -0.71194202
C        6.00478346       8.01560096      11.93106014      -0.76446773       0.24603828       0.36337949      -0.38491768       0.20468193       1.74669909
H        4.84954625       7.41127300      13.72965715      -0.10826375      -0.01874910      -0.22505857       0.89011228       0.13360883      -0.78831077
C        6.85915468       7.58792263      10.95563077       0.20319088      -0.18953493       1.08654704       0.64526099      -1.47900057       0.37673330
H        5.88555693       9.07660493      12.02844317      -0.28710557      -0.21890492       0.16943727      -0.53460729       0.26552725      -0.10422691
C        7.35236250       6.26650526      10.96152162       0.15121713       0.00815743       1.58934666      -1.34453321      -0.92682230       0.19174556
Cl       7.36278198       8.75369831       9.82543370      -0.18502308      -0.06634540       0.78195328       0.73559308       0.47135863      -0.92561185
N        8.40499093       5.85611818      10.17206335      -1.00241297       0.56266353       0.21066273       0.15046030       0.06363663       0.11860441
H        8.60342955       6.45210459       9.42263595       0.21399758       0.23458165      -0.06932630       0.38033894       1.36660779      -0.98383379
H        8.44717629       4.94443390       9.77774698       0.16389475      -0.16786680      -0.15813243      -0.47797191      -1.05710304       0.38489881
H        6.85173001       4.27946072      11.72883952       0.07207882       0.02095448       0.15319370       0.28549850       0.11876217       0.06398595
C       14.69032905      -0.74522655      -7.38276311       0.36795437       0.25020761       0.07985685      -1.86562169       0.25381070      -1.38498414
C       15.07898381       0.45334039      -7.94806165       0.23563095      -0.33292194      -0.94116961      -0.87905091      -0.53558028      -0.01720203
C       15.42016332      -1.28167537      -6.36478235       0.50657615       0.09627658       0.30933258      -0.54951179      -1.65295553       2.05745792
H       13.72471269      -1.15694095      -7.82197076      -0.16632552       0.11428359       0.06318158       1.54755461       0.05229231       1.04167473
C       16.17696177       1.10803181      -7.47106838      -0.67148636      -0.29404336       0.27972873       1.10418200       0.22446346      -0.93084264
H       14.50631530       0.79125137      -8.77813633       0.19136970      -0.21557973       0.18913528      -0.13938273       0.55766052      -0.26543760
C       16.96875177       0.52323037      -6.53024138      -1.10657380      -0.59462823       0.76227876       0.23627856      -0.86676407       0.75368863